 +-------------------------------------------------+
 |                                                 |
 |      CCC   AA    SSS  TTTTT  EEEEE  PPPP        |
 |     C     A  A  S       T    E      P   P       |
 |     C     AAAA   SS     T    EEE    PPPP        |
 |     C     A  A     S    T    E      P           |
 |      CCC  A  A  SSS     T    EEEEE  P           |
 |                                                 |
 +-------------------------------------------------+
 |                                                 |
 | Welcome to Academic Release CASTEP version 18.1 |          
 | Ab Initio Total Energy Program                  |
 |                                                 |
 | Authors:                                        |
 | M. Segall, M. Probert, C. Pickard, P. Hasnip,   |
 | S. Clark, K. Refson, J. R. Yates, M. Payne      |
 |                                                 |
 | Contributors:                                   |
 | P. Lindan, P. Haynes, J. White, V. Milman,      |
 | N. Govind, M. Gibson, P. Tulip, V. Cocula,      |
 | B. Montanari, D. Quigley, M. Glover,            |
 | L. Bernasconi, A. Perlov, M. Plummer,           |
 | E. McNellis, J. Meyer, J. Gale, D. Jochym       |
 | J. Aarons, B. Walker, R. Gillen, D. Jones       |
 | T. Green, I. J. Bush, C. J. Armstrong,          |
 | E. J. Higgins, E. L. Brown, M. S. McFly,        |
 | J. Wilkins, B-C. Shih, P. J. P. Byrne           |
 |                                                 |
 | Copyright (c) 2000 - 2017                       |
 |                                                 |
 |     Distributed under the terms of an           |
 |     Agreement between the United Kingdom        |
 |     Car-Parrinello (UKCP) Consortium,           |
 |     Daresbury Laboratory and Accelrys, Inc.     |
 |                                                 |
 | Please cite                                     |
 |                                                 |
 |     "First principles methods using CASTEP"     |
 |                                                 |
 |         Zeitschrift fuer Kristallographie       |
 |           220(5-6) pp. 567-570 (2005)           |
 |                                                 |
 | S. J. Clark, M. D. Segall, C. J. Pickard,       |
 | P. J. Hasnip, M. J. Probert, K. Refson,         |
 | M. C. Payne                                     |
 |                                                 |
 |       in all publications arising from          |
 |              your use of CASTEP                 |
 |                                                 |
 +-------------------------------------------------+


 Compiled for linux_x86_64_gfortran4.8 on Thu, 19 Jul 2018 15:42:32 +0100
 from code version 70483bd0ad64+  Sun, 10 Dec 2017 12:18:29 +0000
 Compiler: GNU Fortran 4.8.5; Optimisation: fast
 MATHLIBS: Intel MKL(2018.0.0) (LAPACK version 3.7.0)
 FFT Lib : mkl
 Fundamental constants values: CODATA 2014

 Run started: Sat, 29 Aug 2020 13:51:00 +0100

 Atomic calculation performed for H: 1s1

 Converged in 41 iterations to an ae energy of -12.488 eV

   ============================================================                
   | Pseudopotential Report - Date of generation 29-08-2020   |                
   ------------------------------------------------------------                
   | Element: H Ionic charge:  1.00 Level of theory: PBE      |                
   | Atomic Solver: Koelling-Harmon                           |                
   |                                                          |                
   |               Reference Electronic Structure             |                
   |         Orbital         Occupation         Energy        |                
   |            1s              1.000           -0.239        |                
   |                                                          |                
   |                 Pseudopotential Definition               |                
   |        Beta     l      e      Rc     scheme   norm       |                
   |          1      0   -0.239   0.599     qc      0         |                
   |          2      0    0.250   0.599     qc      0         |                
   |         loc     1    0.000   0.599     pn      0         |                
   |                                                          |                
   | Augmentation charge Rinner = 0.421                       |                
   | No partial core correction                               |                
   ------------------------------------------------------------                
   | "1|0.6|13|15|17|10(qc=8)"                                |                
   ------------------------------------------------------------                
   |      Author: Chris J. Pickard, Cambridge University      |                
   ============================================================                

 Pseudo atomic calculation performed for H 1s1

 Converged in 24 iterations to a total energy of -12.4868 eV

 Calculation parallelised over 36 processes.
 Data is distributed by k-point(36-way)

 ************************************ Title ************************************
 

 ***************************** General Parameters ******************************
  
 output verbosity                               : normal  (1)
 write checkpoint data to                       : Cmca-12.check
 type of calculation                            : geometry optimization
 stress calculation                             : on
 density difference calculation                 : off
 electron localisation func (ELF) calculation   : off
 Hirshfeld analysis                             : off
 unlimited duration calculation
 timing information                             : on
 memory usage estimate                          : on
 write extra output files                       : on
 write final potential to formatted file        : off
 write final density to formatted file          : off
 write structure in CELL formatted file         : on
 write BibTeX reference list                    : on
 write OTFG pseudopotential files               : on
 write electrostatic potential file             : on
 write bands file                               : on
 checkpoint writing                             : both castep_bin and check files
  
 output         length unit                     : A
 output           mass unit                     : amu
 output           time unit                     : ps
 output         charge unit                     : e
 output           spin unit                     : hbar/2
 output         energy unit                     : eV
 output          force unit                     : eV/A
 output       velocity unit                     : A/ps
 output       pressure unit                     : GPa
 output     inv_length unit                     : 1/A
 output      frequency unit                     : cm-1
 output force constant unit                     : eV/A**2
 output         volume unit                     : A**3
 output   IR intensity unit                     : (D/A)**2/amu
 output         dipole unit                     : D
 output         efield unit                     : eV/A/e
 output        entropy unit                     : J/mol/K
  
 wavefunctions paging                           : none
 random number generator seed                   : randomised (135101071)
 data distribution                              : optimal for this architecture
 optimization strategy                          : maximize speed(+++)

 *********************** Exchange-Correlation Parameters ***********************
  
 using functional                               : Perdew Burke Ernzerhof
 relativistic treatment                         : Koelling-Harmon
 DFT+D: Semi-empirical dispersion correction    : off

 ************************* Pseudopotential Parameters **************************
  
 pseudopotential representation                 : reciprocal space
 <beta|phi> representation                      : reciprocal space
 spin-orbit coupling                            : off

 **************************** Basis Set Parameters *****************************
  
 plane wave basis set cut-off                   :  1600.0000   eV
 size of standard grid                          :     2.0000
 size of   fine   gmax                          :    40.9853   1/A
 finite basis set correction                    : automatic
 number of sample energies                      :          3
           sample  spacing                      :     5.0000   eV

 **************************** Electronic Parameters ****************************
  
 number of  electrons                           :  24.00    
 net charge of system                           :  0.000    
 treating system as non-spin-polarized
 number of bands                                :         12

 ********************* Electronic Minimization Parameters **********************
  
 Method: Treating system as non-metallic,
         and number of  SD  steps               :          1
         and number of  CG  steps               :          4
  
 total energy / atom convergence tol.           : 0.1000E-10   eV
 eigen-energy convergence tolerance             : 0.2000E-10   eV
 max force / atom convergence tol.              : ignored
 convergence tolerance window                   :          3   cycles
 max. number of SCF cycles                      :        200
 periodic dipole correction                     : NONE

 ************************** Density Mixing Parameters **************************
  
 density-mixing scheme                          : Broyden
 max. length of mixing history                  :         20
 charge density mixing amplitude                : 0.8000    
 cut-off energy for mixing                      :  1600.       eV

 *********************** Population Analysis Parameters ************************
  
 Population analysis with cutoff                :  3.000       A
 Population analysis output                     : summary and pdos components

 ********************** Geometry Optimization Parameters ***********************
  
 optimization method                            : LBFGS
 max. no. of LBFGS updates                      : unbounded
 variable cell method                           : fixed basis quality
 max. number of steps                           :        200
 estimated bulk modulus                         :  500.0       GPa
 estimated <frequency>                          :  1668.       cm-1
 geom line minimiser                            : on
 with line minimiser tolerance                  :     0.4000
 total energy convergence tolerance             : 0.1000E-08   eV/atom
        max ionic |force| tolerance             : 0.1000E-04   eV/A
 max ionic |displacement| tolerance             : 0.1000E-04   A
   max |stress component| tolerance             : 0.1000E-04   GPa
 convergence tolerance window                   :          2   steps
 backup results every                           :      14400   seconds
 write geom trajectory file                     : on

 *******************************************************************************
  

                           -------------------------------
                                      Unit Cell
                           -------------------------------
        Real Lattice(A)                      Reciprocal Lattice(1/A)
     2.8200126    -0.0000000     0.0000000        2.228069912   0.000000000  -0.000000000
    -0.0000000     5.2275114    -0.0000007        0.000000000   1.201945799   0.000000164
     0.0000000    -0.0000004     3.1364582       -0.000000000   0.000000275   2.003274063

                       Lattice parameters(A)       Cell Angles
                    a =      2.820013          alpha =   90.000016
                    b =      5.227511          beta  =   90.000000
                    c =      3.136458          gamma =   90.000000

                       Current cell volume =            46.236563       A**3
                                   density =             0.523191   AMU/A**3
                                           =             0.868779     g/cm^3

                           -------------------------------
                                     Cell Contents
                           -------------------------------
                         Total number of ions in cell =   24
                      Total number of species in cell =    1
                        Max number of any one species =   24

            xxxxxxxxxxxxxxxxxxxxxxxxxxxxxxxxxxxxxxxxxxxxxxxxxxxxxxxxxxxx
            x  Element    Atom        Fractional coordinates of atoms  x
            x            Number           u          v          w      x
            x----------------------------------------------------------x
            x  H            1         0.000000   0.000337   0.121466   x 
            x  H            2         0.000000   0.133557   0.455831   x 
            x  H            3         0.000000   0.254387   0.326240   x 
            x  H            4         0.500000   0.254386   0.173763   x 
            x  H            5         0.500000   0.133559   0.044166   x 
            x  H            6         0.500000   0.000338   0.378533   x 
            x  H            7         0.500000   0.245613   0.673760   x 
            x  H            8         0.500000   0.366443   0.544169   x 
            x  H            9         0.500000   0.499663   0.878534   x 
            x  H           10         0.500000   0.745614   0.826237   x 
            x  H           11         0.500000   0.866441   0.955834   x 
            x  H           12         0.500000   0.999662   0.621467   x 
            x  H           13         0.500000   0.754387   0.326240   x 
            x  H           14         0.500000   0.633557   0.455831   x 
            x  H           15         0.500000   0.500337   0.121466   x 
            x  H           16        -0.000000   0.754386   0.173763   x 
            x  H           17         0.000000   0.633559   0.044166   x 
            x  H           18         0.000000   0.500338   0.378533   x 
            x  H           19         0.000000   0.745613   0.673760   x 
            x  H           20        -0.000000   0.866443   0.544169   x 
            x  H           21        -0.000000   0.999663   0.878534   x 
            x  H           22         0.000000   0.245614   0.826237   x 
            x  H           23        -0.000000   0.366441   0.955834   x 
            x  H           24        -0.000000   0.499662   0.621467   x 
            xxxxxxxxxxxxxxxxxxxxxxxxxxxxxxxxxxxxxxxxxxxxxxxxxxxxxxxxxxxx


                         No user defined ionic velocities

                           -------------------------------
                                   Details of Species
                           -------------------------------

                               Mass of species in AMU
                                    H    1.0078250

                          Electric Quadrupole Moment (Barn)
                                    H    0.0028600 Isotope  2

                          Files used for pseudopotentials:
                                    H 1|0.6|13|15|17|10(qc=8)

                           -------------------------------
                              k-Points For BZ Sampling
                           -------------------------------
                       MP grid size for SCF calculation is 18 18 18
                            with an offset of   0.000  0.000  0.000
                       Number of kpoints used =          2916

                           -------------------------------
                               Symmetry and Constraints
                           -------------------------------

                      Cell is a supercell containing 2 primitive cells
                      Maximum deviation from symmetry =  0.00000         ANG

                      Number of symmetry operations   =           1
                      Number of ionic constraints     =           3
                      Point group of crystal =     1: C1, 1, 1
                      Space group of crystal =    64: Cmce, -C 2bc 2

             Set iprint > 1 for details on symmetry rotations/translations

                         Centre of mass is constrained
             Set iprint > 1 for details of linear ionic constraints

                         Number of cell constraints= 0
                         Cell constraints are:  1 2 3 4 5 6

                         External pressure/stress (GPa)
                        120.00000   0.00000   0.00000
                                  120.00000   0.00000
                                            120.00000
  
+---------------- MEMORY AND SCRATCH DISK ESTIMATES PER PROCESS --------------+
|                                                     Memory          Disk    |
| Baseline code, static data and system overhead      492.0 MB         0.0 MB |
| BLAS internal memory storage                          0.0 MB         0.0 MB |
| Model and support data                              228.2 MB         0.0 MB |
| Electronic energy minimisation requirements         236.3 MB         0.0 MB |
| Force calculation requirements                       14.8 MB         0.0 MB |
| Stress calculation requirements                      18.8 MB         0.0 MB |
|                                               ----------------------------- |
| Approx. total storage required per process          956.4 MB         0.0 MB |
|                                                                             |
| Requirements will fluctuate during execution and may exceed these estimates |
+-----------------------------------------------------------------------------+
Calculating finite basis set correction with  3 cut-off energies.
Calculating total energy with cut-off of 1590.000 eV.
------------------------------------------------------------------------ <-- SCF
SCF loop      Energy                           Energy gain       Timer   <-- SCF
                                               per atom          (sec)   <-- SCF
------------------------------------------------------------------------ <-- SCF
Initial   5.85986901E+002                                         19.29  <-- SCF
      1  -2.96907427E+002                    3.67872637E+001     103.01  <-- SCF
      2  -3.56742652E+002                    2.49313435E+000     164.63  <-- SCF
      3  -3.56281042E+002                   -1.92337567E-002     241.26  <-- SCF
      4  -3.56246094E+002                   -1.45616140E-003     318.75  <-- SCF
      5  -3.56246841E+002                    3.11440460E-005     396.28  <-- SCF
      6  -3.56246905E+002                    2.68027130E-006     469.63  <-- SCF
      7  -3.56246906E+002                    2.97028653E-009     544.25  <-- SCF
      8  -3.56246906E+002                    2.87408557E-010     616.76  <-- SCF
      9  -3.56246906E+002                    8.38850639E-012     669.97  <-- SCF
     10  -3.56246906E+002                    2.51755894E-013     723.67  <-- SCF
------------------------------------------------------------------------ <-- SCF
 
Final energy =  -356.2469055685     eV
(energy not corrected for finite basis set)
 
Calculating total energy with cut-off of 1595.000 eV.
------------------------------------------------------------------------ <-- SCF
SCF loop      Energy                           Energy gain       Timer   <-- SCF
                                               per atom          (sec)   <-- SCF
------------------------------------------------------------------------ <-- SCF
Initial  -3.56246906E+002                                        744.85  <-- SCF
      1  -3.56246993E+002                    3.62708470E-006     813.38  <-- SCF
      2  -3.56246993E+002                    1.44608586E-012     866.21  <-- SCF
      3  -3.56246993E+002                    1.16109617E-009     919.07  <-- SCF
      4  -3.56246993E+002                    3.86636632E-011     971.78  <-- SCF
      5  -3.56246993E+002                    3.06135167E-013    1024.64  <-- SCF
      6  -3.56246993E+002                   -1.55081631E-013    1076.92  <-- SCF
------------------------------------------------------------------------ <-- SCF
 
Final energy =  -356.2469926474     eV
(energy not corrected for finite basis set)
 
Calculating total energy with cut-off of 1600.000 eV.
------------------------------------------------------------------------ <-- SCF
SCF loop      Energy                           Energy gain       Timer   <-- SCF
                                               per atom          (sec)   <-- SCF
------------------------------------------------------------------------ <-- SCF
Initial  -3.56246993E+002                                       1097.72  <-- SCF
      1  -3.56247078E+002                    3.57349690E-006    1165.92  <-- SCF
      2  -3.56247078E+002                    1.51254941E-012    1218.46  <-- SCF
      3  -3.56247078E+002                    1.13917528E-009    1271.23  <-- SCF
      4  -3.56247078E+002                    3.74794035E-011    1325.53  <-- SCF
      5  -3.56247078E+002                   -4.83371317E-013    1378.30  <-- SCF
      6  -3.56247078E+002                    2.33629470E-013    1430.65  <-- SCF
------------------------------------------------------------------------ <-- SCF
 
Final energy =  -356.2470784396     eV
(energy not corrected for finite basis set)
 
 For future reference: finite basis dEtot/dlog(Ecut) =      -0.027561eV
 Total energy corrected for finite basis set =    -356.247078 eV
 
+---------------- MEMORY AND SCRATCH DISK ESTIMATES PER PROCESS --------------+
|                                                     Memory          Disk    |
| Model and support data                              233.2 MB         0.0 MB |
| Electronic energy minimisation requirements         236.3 MB         0.0 MB |
| Geometry minimisation requirements                  342.3 MB         0.0 MB |
|                                               ----------------------------- |
| Approx. total storage required per process          811.8 MB         0.0 MB |
|                                                                             |
| Requirements will fluctuate during execution and may exceed these estimates |
+-----------------------------------------------------------------------------+
 

 ************************************** Forces **************************************
 *                                                                                  *
 *                           Cartesian components (eV/A)                            *
 * -------------------------------------------------------------------------------- *
 *                         x                    y                    z              *
 *                                                                                  *
 * H               1     -0.00000             -0.00000             -0.00000         *
 * H               2     -0.00000             -0.00000              0.00000         *
 * H               3      0.00000              0.00000             -0.00000         *
 * H               4      0.00000              0.00000              0.00000         *
 * H               5     -0.00000             -0.00000             -0.00000         *
 * H               6     -0.00000             -0.00000              0.00000         *
 * H               7      0.00000              0.00000             -0.00000         *
 * H               8      0.00000             -0.00000              0.00000         *
 * H               9     -0.00000              0.00000             -0.00000         *
 * H              10     -0.00000             -0.00000             -0.00000         *
 * H              11      0.00000              0.00000              0.00000         *
 * H              12      0.00000              0.00000             -0.00000         *
 * H              13      0.00000             -0.00000              0.00000         *
 * H              14     -0.00000              0.00000             -0.00000         *
 * H              15     -0.00000             -0.00000              0.00000         *
 * H              16      0.00000             -0.00000             -0.00000         *
 * H              17      0.00000              0.00000              0.00000         *
 * H              18     -0.00000             -0.00000             -0.00000         *
 * H              19     -0.00000             -0.00000              0.00000         *
 * H              20      0.00000              0.00000             -0.00000         *
 * H              21      0.00000              0.00000              0.00000         *
 * H              22     -0.00000              0.00000              0.00000         *
 * H              23      0.00000             -0.00000             -0.00000         *
 * H              24      0.00000              0.00000              0.00000         *
 *                                                                                  *
 ************************************************************************************

 ***************** Stress Tensor *****************
 *                                               *
 *          Cartesian components (GPa)           *
 * --------------------------------------------- *
 *             x             y             z     *
 *                                               *
 *  x   -149.999588     -0.000000      0.000000  *
 *  y     -0.000000   -149.999573      0.000000  *
 *  z      0.000000      0.000000   -149.999571  *
 *                                               *
 *  Pressure:  149.9996                          *
 *                                               *
 *************************************************
 LBFGS: finished iteration     0 with enthalpy= -3.21616767E+002 eV
  
 +-----------+-----------------+-----------------+------------+-----+ <-- LBFGS
 | Parameter |      value      |    tolerance    |    units   | OK? | <-- LBFGS
 +-----------+-----------------+-----------------+------------+-----+ <-- LBFGS
 |  dE/ion   |   0.000000E+000 |   1.000000E-009 |         eV | No  | <-- LBFGS
 |  |F|max   |   2.521783E-006 |   1.000000E-005 |       eV/A | Yes | <-- LBFGS
 |  |dR|max  |   0.000000E+000 |   1.000000E-005 |          A | No  | <-- LBFGS
 |   Smax    |   2.999959E+001 |   1.000000E-005 |        GPa | No  | <-- LBFGS
 +-----------+-----------------+-----------------+------------+-----+ <-- LBFGS
  

================================================================================
 Starting LBFGS iteration          1 ...
================================================================================
  
 +------------+-------------+-------------+-----------------+ <-- min LBFGS
 |    Step    |   lambda    |   F.delta'  |    enthalpy     | <-- min LBFGS
 +------------+-------------+-------------+-----------------+ <-- min LBFGS
 |  previous  |    0.000000 |    0.551062 |     -321.616767 | <-- min LBFGS
 +------------+-------------+-------------+-----------------+ <-- min LBFGS
  

--------------------------------------------------------------------------------
 LBFGS: starting iteration         1 with trial guess (lambda=  1.000000)
--------------------------------------------------------------------------------
 
+---------------- MEMORY AND SCRATCH DISK ESTIMATES PER PROCESS --------------+
|                                                     Memory          Disk    |
| Model and support data                              244.2 MB         0.0 MB |
| Electronic energy minimisation requirements         249.7 MB         0.0 MB |
| Geometry minimisation requirements                  361.7 MB         0.0 MB |
|                                               ----------------------------- |
| Approx. total storage required per process          855.7 MB         0.0 MB |
|                                                                             |
| Requirements will fluctuate during execution and may exceed these estimates |
+-----------------------------------------------------------------------------+
 

                           -------------------------------
                                      Unit Cell
                           -------------------------------
        Real Lattice(A)              Reciprocal Lattice(1/A)
     2.8764121    -0.0000000     0.0000000        2.184382854   0.000000000  -0.000000000
    -0.0000000     5.3320601    -0.0000007        0.000000000   1.178378563   0.000000161
     0.0000000    -0.0000004     3.1991864       -0.000000000   0.000000270   1.963994730

                       Lattice parameters(A)       Cell Angles
                    a =      2.876412          alpha =   90.000016
                    b =      5.332060          beta  =   90.000000
                    c =      3.199186          gamma =   90.000000

                Current cell volume =            49.066569 A**3

                           -------------------------------
                                     Cell Contents
                           -------------------------------

            xxxxxxxxxxxxxxxxxxxxxxxxxxxxxxxxxxxxxxxxxxxxxxxxxxxxxxxxxxxxxxxxx
            x  Element         Atom        Fractional coordinates of atoms  x
            x                 Number           u          v          w      x
            x---------------------------------------------------------------x
            x  H                 1         0.000000   0.000337   0.121466   x
            x  H                 2        -0.000000   0.133557   0.455831   x
            x  H                 3         0.000000   0.254387   0.326240   x
            x  H                 4         0.500000   0.254386   0.173763   x
            x  H                 5         0.500000   0.133559   0.044166   x
            x  H                 6         0.500000   0.000338   0.378533   x
            x  H                 7         0.500000   0.245613   0.673760   x
            x  H                 8         0.500000   0.366443   0.544169   x
            x  H                 9         0.500000   0.499663   0.878533   x
            x  H                10         0.500000   0.745614   0.826237   x
            x  H                11         0.500000   0.866441   0.955834   x
            x  H                12         0.500000   0.999662   0.621467   x
            x  H                13         0.500000   0.754387   0.326240   x
            x  H                14         0.500000   0.633557   0.455831   x
            x  H                15         0.500000   0.500337   0.121467   x
            x  H                16        -0.000000   0.754386   0.173763   x
            x  H                17         0.000000   0.633559   0.044166   x
            x  H                18         0.000000   0.500338   0.378533   x
            x  H                19         0.000000   0.745613   0.673760   x
            x  H                20        -0.000000   0.866443   0.544169   x
            x  H                21        -0.000000   0.999663   0.878534   x
            x  H                22         0.000000   0.245614   0.826237   x
            x  H                23        -0.000000   0.366441   0.955834   x
            x  H                24        -0.000000   0.499662   0.621467   x
            xxxxxxxxxxxxxxxxxxxxxxxxxxxxxxxxxxxxxxxxxxxxxxxxxxxxxxxxxxxxxxxxx


------------------------------------------------------------------------ <-- SCF
SCF loop      Energy                           Energy gain       Timer   <-- SCF
                                               per atom          (sec)   <-- SCF
------------------------------------------------------------------------ <-- SCF
Initial  -3.58593916E+002                                       1566.45  <-- SCF
      1  -3.58671479E+002                    3.23182115E-003    1639.10  <-- SCF
      2  -3.58671684E+002                    8.53815589E-006    1718.42  <-- SCF
      3  -3.58669950E+002                   -7.22686158E-005    1796.00  <-- SCF
      4  -3.58669904E+002                   -1.91452099E-006    1878.42  <-- SCF
      5  -3.58669905E+002                    5.73449717E-008    1958.05  <-- SCF
      6  -3.58669905E+002                    5.42866471E-009    2037.79  <-- SCF
      7  -3.58669905E+002                    2.74172239E-011    2092.70  <-- SCF
      8  -3.58669905E+002                    1.66763104E-012    2147.94  <-- SCF
      9  -3.58669905E+002                   -7.85478390E-014    2203.83  <-- SCF
------------------------------------------------------------------------ <-- SCF
 
Final energy =  -358.6699054463     eV
(energy not corrected for finite basis set)
 

 ************************************** Forces **************************************
 *                                                                                  *
 *                           Cartesian components (eV/A)                            *
 * -------------------------------------------------------------------------------- *
 *                         x                    y                    z              *
 *                                                                                  *
 * H               1     -0.00000              0.00638             -0.35992         *
 * H               2      0.00000              0.31329             -0.20880         *
 * H               3     -0.00000             -0.31032              0.19587         *
 * H               4      0.00000             -0.31032             -0.19587         *
 * H               5     -0.00000              0.31328              0.20880         *
 * H               6     -0.00000              0.00637              0.35992         *
 * H               7      0.00000              0.31031             -0.19586         *
 * H               8      0.00000             -0.31327              0.20879         *
 * H               9      0.00000             -0.00638              0.35993         *
 * H              10     -0.00000              0.31032              0.19587         *
 * H              11      0.00000             -0.31328             -0.20880         *
 * H              12      0.00000             -0.00637             -0.35992         *
 * H              13      0.00000             -0.31031              0.19586         *
 * H              14      0.00000              0.31328             -0.20879         *
 * H              15     -0.00000              0.00638             -0.35993         *
 * H              16      0.00000             -0.31031             -0.19587         *
 * H              17     -0.00000              0.31327              0.20880         *
 * H              18     -0.00000              0.00637              0.35993         *
 * H              19     -0.00000              0.31032             -0.19587         *
 * H              20      0.00000             -0.31329              0.20880         *
 * H              21     -0.00000             -0.00638              0.35992         *
 * H              22     -0.00000              0.31031              0.19587         *
 * H              23      0.00000             -0.31327             -0.20880         *
 * H              24      0.00000             -0.00637             -0.35993         *
 *                                                                                  *
 ************************************************************************************

 ***************** Stress Tensor *****************
 *                                               *
 *          Cartesian components (GPa)           *
 * --------------------------------------------- *
 *             x             y             z     *
 *                                               *
 *  x   -129.719965     -0.000000     -0.000000  *
 *  y     -0.000000   -123.266287      0.000041  *
 *  z     -0.000000      0.000041   -122.464965  *
 *                                               *
 *  Pressure:  125.1504                          *
 *                                               *
 *************************************************
  
 +------------+-------------+-------------+-----------------+ <-- min LBFGS
 |    Step    |   lambda    |   F.delta'  |    enthalpy     | <-- min LBFGS
 +------------+-------------+-------------+-----------------+ <-- min LBFGS
 |  previous  |    0.000000 |    0.551062 |     -321.616767 | <-- min LBFGS
 | trial step |    1.000000 |    0.098430 |     -321.919972 | <-- min LBFGS
 +------------+-------------+-------------+-----------------+ <-- min LBFGS
  
 LBFGS: finished iteration     1 with enthalpy= -3.21919972E+002 eV
  
 +-----------+-----------------+-----------------+------------+-----+ <-- LBFGS
 | Parameter |      value      |    tolerance    |    units   | OK? | <-- LBFGS
 +-----------+-----------------+-----------------+------------+-----+ <-- LBFGS
 |  dE/ion   |   1.263355E-002 |   1.000000E-009 |         eV | No  | <-- LBFGS
 |  |F|max   |   3.764911E-001 |   1.000000E-005 |       eV/A | No  | <-- LBFGS
 |  |dR|max  |   2.495078E-007 |   1.000000E-005 |          A | Yes | <-- LBFGS
 |   Smax    |   9.719965E+000 |   1.000000E-005 |        GPa | No  | <-- LBFGS
 +-----------+-----------------+-----------------+------------+-----+ <-- LBFGS
  

================================================================================
 Starting LBFGS iteration          2 ...
================================================================================
  
 +------------+-------------+-------------+-----------------+ <-- min LBFGS
 |    Step    |   lambda    |   F.delta'  |    enthalpy     | <-- min LBFGS
 +------------+-------------+-------------+-----------------+ <-- min LBFGS
 |  previous  |    0.000000 |    0.268286 |     -321.919972 | <-- min LBFGS
 +------------+-------------+-------------+-----------------+ <-- min LBFGS
  

--------------------------------------------------------------------------------
 LBFGS: starting iteration         2 with trial guess (lambda=  1.000000)
--------------------------------------------------------------------------------
 
+---------------- MEMORY AND SCRATCH DISK ESTIMATES PER PROCESS --------------+
|                                                     Memory          Disk    |
| Model and support data                              258.0 MB         0.0 MB |
| Electronic energy minimisation requirements         266.5 MB         0.0 MB |
| Geometry minimisation requirements                  386.1 MB         0.0 MB |
|                                               ----------------------------- |
| Approx. total storage required per process          910.7 MB         0.0 MB |
|                                                                             |
| Requirements will fluctuate during execution and may exceed these estimates |
+-----------------------------------------------------------------------------+
 

                           -------------------------------
                                      Unit Cell
                           -------------------------------
        Real Lattice(A)              Reciprocal Lattice(1/A)
     2.9533695     0.0000000     0.0000000        2.127463361  -0.000000000  -0.000000000
     0.0000000     5.4462290    -0.0000009       -0.000000000   1.153676287   0.000000196
     0.0000000    -0.0000006     3.2655644       -0.000000000   0.000000328   1.924073294

                       Lattice parameters(A)       Cell Angles
                    a =      2.953369          alpha =   90.000019
                    b =      5.446229          beta  =   90.000000
                    c =      3.265564          gamma =   90.000000

                Current cell volume =            52.525711 A**3

                           -------------------------------
                                     Cell Contents
                           -------------------------------

            xxxxxxxxxxxxxxxxxxxxxxxxxxxxxxxxxxxxxxxxxxxxxxxxxxxxxxxxxxxxxxxxx
            x  Element         Atom        Fractional coordinates of atoms  x
            x                 Number           u          v          w      x
            x---------------------------------------------------------------x
            x  H                 1         0.000000   0.000484   0.107643   x
            x  H                 2        -0.000000   0.140776   0.447812   x
            x  H                 3         0.000000   0.247236   0.333762   x
            x  H                 4         0.500000   0.247236   0.166241   x
            x  H                 5         0.500000   0.140777   0.052185   x
            x  H                 6         0.500000   0.000485   0.392356   x
            x  H                 7         0.500000   0.252763   0.666238   x
            x  H                 8         0.500000   0.359224   0.552188   x
            x  H                 9         0.500000   0.499516   0.892357   x
            x  H                10         0.500000   0.752764   0.833759   x
            x  H                11         0.500000   0.859223   0.947815   x
            x  H                12         0.500000   0.999515   0.607644   x
            x  H                13         0.500000   0.747237   0.333762   x
            x  H                14         0.500000   0.640776   0.447812   x
            x  H                15         0.500000   0.500484   0.107643   x
            x  H                16        -0.000000   0.747236   0.166241   x
            x  H                17         0.000000   0.640777   0.052185   x
            x  H                18        -0.000000   0.500485   0.392356   x
            x  H                19         0.000000   0.752764   0.666238   x
            x  H                20        -0.000000   0.859224   0.552188   x
            x  H                21        -0.000000   0.999516   0.892357   x
            x  H                22         0.000000   0.252764   0.833759   x
            x  H                23        -0.000000   0.359223   0.947815   x
            x  H                24        -0.000000   0.499515   0.607644   x
            xxxxxxxxxxxxxxxxxxxxxxxxxxxxxxxxxxxxxxxxxxxxxxxxxxxxxxxxxxxxxxxxx


------------------------------------------------------------------------ <-- SCF
SCF loop      Energy                           Energy gain       Timer   <-- SCF
                                               per atom          (sec)   <-- SCF
------------------------------------------------------------------------ <-- SCF
Initial  -3.55974487E+002                                       2345.28  <-- SCF
      1  -3.61287296E+002                    2.21367063E-001    2422.12  <-- SCF
      2  -3.61311375E+002                    1.00326819E-003    2504.38  <-- SCF
      3  -3.60655574E+002                   -2.73250214E-002    2587.56  <-- SCF
      4  -3.60631088E+002                   -1.02027708E-003    2671.34  <-- SCF
      5  -3.60631156E+002                    2.83208266E-006    2754.72  <-- SCF
      6  -3.60631164E+002                    3.43356634E-007    2836.79  <-- SCF
      7  -3.60631164E+002                    4.54810517E-009    2918.70  <-- SCF
      8  -3.60631164E+002                    8.13840202E-010    2999.74  <-- SCF
      9  -3.60631164E+002                    1.25193171E-011    3057.02  <-- SCF
     10  -3.60631164E+002                    3.80654912E-013    3114.53  <-- SCF
     11  -3.60631164E+002                    3.54472299E-013    3172.47  <-- SCF
------------------------------------------------------------------------ <-- SCF
 
Final energy =  -360.6311639674     eV
(energy not corrected for finite basis set)
 

 ************************************** Forces **************************************
 *                                                                                  *
 *                           Cartesian components (eV/A)                            *
 * -------------------------------------------------------------------------------- *
 *                         x                    y                    z              *
 *                                                                                  *
 * H               1      0.00000             -0.00023              1.67985         *
 * H               2     -0.00000             -1.85836              1.21385         *
 * H               3      0.00000              1.63963             -1.02677         *
 * H               4      0.00000              1.63959              1.02677         *
 * H               5     -0.00000             -1.85832             -1.21393         *
 * H               6      0.00000             -0.00021             -1.67974         *
 * H               7      0.00000             -1.63950              1.02669         *
 * H               8     -0.00000              1.85823             -1.21377         *
 * H               9     -0.00000              0.00023             -1.67991         *
 * H              10      0.00000             -1.63958             -1.02676         *
 * H              11     -0.00000              1.85830              1.21392         *
 * H              12     -0.00000              0.00021              1.67974         *
 * H              13      0.00000              1.63955             -1.02672         *
 * H              14     -0.00000             -1.85827              1.21380         *
 * H              15      0.00000             -0.00023              1.67991         *
 * H              16     -0.00000              1.63954              1.02673         *
 * H              17      0.00000             -1.85827             -1.21390         *
 * H              18      0.00000             -0.00021             -1.67977         *
 * H              19      0.00000             -1.63963              1.02677         *
 * H              20     -0.00000              1.85836             -1.21385         *
 * H              21     -0.00000              0.00023             -1.67985         *
 * H              22      0.00000             -1.63951             -1.02671         *
 * H              23     -0.00000              1.85824              1.21388         *
 * H              24     -0.00000              0.00021              1.67978         *
 *                                                                                  *
 ************************************************************************************

 ***************** Stress Tensor *****************
 *                                               *
 *          Cartesian components (GPa)           *
 * --------------------------------------------- *
 *             x             y             z     *
 *                                               *
 *  x   -105.721164     -0.000000      0.000000  *
 *  y     -0.000000   -136.662488     -0.000258  *
 *  z      0.000000     -0.000258   -134.476126  *
 *                                               *
 *  Pressure:  125.6199                          *
 *                                               *
 *************************************************
  
 +------------+-------------+-------------+-----------------+ <-- min LBFGS
 |    Step    |   lambda    |   F.delta'  |    enthalpy     | <-- min LBFGS
 +------------+-------------+-------------+-----------------+ <-- min LBFGS
 |  previous  |    0.000000 |    0.268286 |     -321.919972 | <-- min LBFGS
 | trial step |    1.000000 |   -1.076191 |     -321.290400 | <-- min LBFGS
 +------------+-------------+-------------+-----------------+ <-- min LBFGS
  

--------------------------------------------------------------------------------
 LBFGS: improving iteration         2 with line minimization (lambda=  0.199547)
--------------------------------------------------------------------------------

                           -------------------------------
                                      Unit Cell
                           -------------------------------
        Real Lattice(A)              Reciprocal Lattice(1/A)
     2.8917687    -0.0000000     0.0000000        2.172782794   0.000000000  -0.000000000
    -0.0000000     5.3548422    -0.0000008        0.000000000   1.173365176   0.000000168
     0.0000000    -0.0000005     3.2124320       -0.000000000   0.000000282   1.955896773

                       Lattice parameters(A)       Cell Angles
                    a =      2.891769          alpha =   90.000016
                    b =      5.354842          beta  =   90.000000
                    c =      3.212432          gamma =   90.000000

                Current cell volume =            49.744397 A**3

                           -------------------------------
                                     Cell Contents
                           -------------------------------

            xxxxxxxxxxxxxxxxxxxxxxxxxxxxxxxxxxxxxxxxxxxxxxxxxxxxxxxxxxxxxxxxx
            x  Element         Atom        Fractional coordinates of atoms  x
            x                 Number           u          v          w      x
            x---------------------------------------------------------------x
            x  H                 1         0.000000   0.000367   0.118708   x
            x  H                 2        -0.000000   0.134998   0.454231   x
            x  H                 3         0.000000   0.252960   0.327741   x
            x  H                 4         0.500000   0.252959   0.172262   x
            x  H                 5         0.500000   0.134999   0.045766   x
            x  H                 6         0.500000   0.000367   0.381292   x
            x  H                 7         0.500000   0.247040   0.672259   x
            x  H                 8         0.500000   0.365002   0.545769   x
            x  H                 9         0.500000   0.499633   0.881292   x
            x  H                10         0.500000   0.747041   0.827738   x
            x  H                11         0.500000   0.865001   0.954234   x
            x  H                12         0.500000   0.999633   0.618708   x
            x  H                13         0.500000   0.752960   0.327741   x
            x  H                14         0.500000   0.634998   0.454231   x
            x  H                15         0.500000   0.500367   0.118708   x
            x  H                16        -0.000000   0.752959   0.172262   x
            x  H                17         0.000000   0.634999   0.045766   x
            x  H                18         0.000000   0.500367   0.381292   x
            x  H                19         0.000000   0.747040   0.672259   x
            x  H                20        -0.000000   0.865002   0.545769   x
            x  H                21        -0.000000   0.999633   0.881292   x
            x  H                22         0.000000   0.247041   0.827738   x
            x  H                23        -0.000000   0.365001   0.954234   x
            x  H                24        -0.000000   0.499633   0.618708   x
            xxxxxxxxxxxxxxxxxxxxxxxxxxxxxxxxxxxxxxxxxxxxxxxxxxxxxxxxxxxxxxxxx


------------------------------------------------------------------------ <-- SCF
SCF loop      Energy                           Energy gain       Timer   <-- SCF
                                               per atom          (sec)   <-- SCF
------------------------------------------------------------------------ <-- SCF
Initial  -3.56043003E+002                                       3323.16  <-- SCF
      1  -3.59680896E+002                    1.51578897E-001    3398.24  <-- SCF
      2  -3.59696874E+002                    6.65728979E-004    3478.10  <-- SCF
      3  -3.59257387E+002                   -1.83119561E-002    3555.77  <-- SCF
      4  -3.59243051E+002                   -5.97316567E-004    3637.31  <-- SCF
      5  -3.59243047E+002                   -1.69406722E-007    3714.05  <-- SCF
      6  -3.59243049E+002                    7.47294130E-008    3791.79  <-- SCF
      7  -3.59243049E+002                    2.70383816E-009    3870.79  <-- SCF
      8  -3.59243049E+002                    2.72577114E-010    3945.11  <-- SCF
      9  -3.59243049E+002                    1.82674077E-012    4001.05  <-- SCF
     10  -3.59243049E+002                   -6.24354617E-014    4054.74  <-- SCF
------------------------------------------------------------------------ <-- SCF
 
Final energy =  -359.2430488231     eV
(energy not corrected for finite basis set)
 

 ************************************** Forces **************************************
 *                                                                                  *
 *                           Cartesian components (eV/A)                            *
 * -------------------------------------------------------------------------------- *
 *                         x                    y                    z              *
 *                                                                                  *
 * H               1      0.00000              0.00283             -0.07039         *
 * H               2      0.00000             -0.01128              0.00209         *
 * H               3     -0.00000             -0.03734              0.02482         *
 * H               4      0.00000             -0.03734             -0.02482         *
 * H               5     -0.00000             -0.01128             -0.00211         *
 * H               6     -0.00000              0.00283              0.07038         *
 * H               7      0.00000              0.03734             -0.02482         *
 * H               8     -0.00000              0.01128             -0.00209         *
 * H               9      0.00000             -0.00283              0.07038         *
 * H              10     -0.00000              0.03734              0.02482         *
 * H              11      0.00000              0.01127              0.00211         *
 * H              12      0.00000             -0.00283             -0.07038         *
 * H              13      0.00000             -0.03734              0.02482         *
 * H              14      0.00000             -0.01128              0.00209         *
 * H              15      0.00000              0.00283             -0.07038         *
 * H              16     -0.00000             -0.03734             -0.02482         *
 * H              17     -0.00000             -0.01127             -0.00211         *
 * H              18     -0.00000              0.00283              0.07038         *
 * H              19     -0.00000              0.03734             -0.02482         *
 * H              20      0.00000              0.01128             -0.00209         *
 * H              21     -0.00000             -0.00283              0.07039         *
 * H              22     -0.00000              0.03734              0.02482         *
 * H              23      0.00000              0.01127              0.00211         *
 * H              24      0.00000             -0.00283             -0.07038         *
 *                                                                                  *
 ************************************************************************************

 ***************** Stress Tensor *****************
 *                                               *
 *          Cartesian components (GPa)           *
 * --------------------------------------------- *
 *             x             y             z     *
 *                                               *
 *  x   -124.623657     -0.000000     -0.000000  *
 *  y     -0.000000   -124.879517     -0.000009  *
 *  z     -0.000000     -0.000009   -123.712352  *
 *                                               *
 *  Pressure:  124.4052                          *
 *                                               *
 *************************************************
  
 +------------+-------------+-------------+-----------------+ <-- min LBFGS
 |    Step    |   lambda    |   F.delta'  |    enthalpy     | <-- min LBFGS
 +------------+-------------+-------------+-----------------+ <-- min LBFGS
 |  previous  |    0.000000 |    0.268286 |     -321.919972 | <-- min LBFGS
 | trial step |    1.000000 |   -1.076191 |     -321.290400 | <-- min LBFGS
 |  line step |    0.199547 |    0.068483 |     -321.985436 | <-- min LBFGS
 +------------+-------------+-------------+-----------------+ <-- min LBFGS
  
 LBFGS: finished iteration     2 with enthalpy= -3.21985436E+002 eV
  
 +-----------+-----------------+-----------------+------------+-----+ <-- LBFGS
 | Parameter |      value      |    tolerance    |    units   | OK? | <-- LBFGS
 +-----------+-----------------+-----------------+------------+-----+ <-- LBFGS
 |  dE/ion   |   2.727661E-003 |   1.000000E-009 |         eV | No  | <-- LBFGS
 |  |F|max   |   7.044232E-002 |   1.000000E-005 |       eV/A | No  | <-- LBFGS
 |  |dR|max  |   9.269663E-003 |   1.000000E-005 |          A | No  | <-- LBFGS
 |   Smax    |   4.879517E+000 |   1.000000E-005 |        GPa | No  | <-- LBFGS
 +-----------+-----------------+-----------------+------------+-----+ <-- LBFGS
  

================================================================================
 Starting LBFGS iteration          3 ...
================================================================================
  
 +------------+-------------+-------------+-----------------+ <-- min LBFGS
 |    Step    |   lambda    |   F.delta'  |    enthalpy     | <-- min LBFGS
 +------------+-------------+-------------+-----------------+ <-- min LBFGS
 |  previous  |    0.000000 |    0.084256 |     -321.985436 | <-- min LBFGS
 +------------+-------------+-------------+-----------------+ <-- min LBFGS
  

--------------------------------------------------------------------------------
 LBFGS: starting iteration         3 with trial guess (lambda=  1.000000)
--------------------------------------------------------------------------------

                           -------------------------------
                                      Unit Cell
                           -------------------------------
        Real Lattice(A)              Reciprocal Lattice(1/A)
     2.9072570    -0.0000000     0.0000000        2.161207380   0.000000000  -0.000000000
    -0.0000000     5.3856763    -0.0000007        0.000000000   1.166647421   0.000000156
     0.0000000    -0.0000004     3.2275545       -0.000000000   0.000000261   1.946732524

                       Lattice parameters(A)       Cell Angles
                    a =      2.907257          alpha =   90.000015
                    b =      5.385676          beta  =   90.000000
                    c =      3.227554          gamma =   90.000000

                Current cell volume =            50.535580 A**3

                           -------------------------------
                                     Cell Contents
                           -------------------------------

            xxxxxxxxxxxxxxxxxxxxxxxxxxxxxxxxxxxxxxxxxxxxxxxxxxxxxxxxxxxxxxxxx
            x  Element         Atom        Fractional coordinates of atoms  x
            x                 Number           u          v          w      x
            x---------------------------------------------------------------x
            x  H                 1         0.000000   0.000435   0.116123   x
            x  H                 2        -0.000000   0.134497   0.454557   x
            x  H                 3         0.000000   0.252219   0.328575   x
            x  H                 4         0.500000   0.252218   0.171429   x
            x  H                 5         0.500000   0.134498   0.045440   x
            x  H                 6         0.500000   0.000435   0.383877   x
            x  H                 7         0.500000   0.247782   0.671425   x
            x  H                 8         0.500000   0.365503   0.545443   x
            x  H                 9         0.500000   0.499565   0.883877   x
            x  H                10         0.500000   0.747782   0.828571   x
            x  H                11         0.500000   0.865502   0.954560   x
            x  H                12         0.500000   0.999565   0.616123   x
            x  H                13         0.500000   0.752218   0.328575   x
            x  H                14         0.500000   0.634497   0.454557   x
            x  H                15         0.500000   0.500435   0.116123   x
            x  H                16        -0.000000   0.752218   0.171429   x
            x  H                17         0.000000   0.634498   0.045440   x
            x  H                18         0.000000   0.500435   0.383877   x
            x  H                19         0.000000   0.747781   0.671425   x
            x  H                20        -0.000000   0.865503   0.545443   x
            x  H                21        -0.000000   0.999565   0.883877   x
            x  H                22         0.000000   0.247782   0.828571   x
            x  H                23        -0.000000   0.365502   0.954560   x
            x  H                24        -0.000000   0.499565   0.616123   x
            xxxxxxxxxxxxxxxxxxxxxxxxxxxxxxxxxxxxxxxxxxxxxxxxxxxxxxxxxxxxxxxxx


------------------------------------------------------------------------ <-- SCF
SCF loop      Energy                           Energy gain       Timer   <-- SCF
                                               per atom          (sec)   <-- SCF
------------------------------------------------------------------------ <-- SCF
Initial  -3.59778967E+002                                       4198.87  <-- SCF
      1  -3.59848672E+002                    2.90439725E-003    4274.11  <-- SCF
      2  -3.59848942E+002                    1.12475844E-005    4354.79  <-- SCF
      3  -3.59842200E+002                   -2.80909389E-004    4435.77  <-- SCF
      4  -3.59842046E+002                   -6.44062449E-006    4519.10  <-- SCF
      5  -3.59842046E+002                    1.72922302E-008    4600.53  <-- SCF
      6  -3.59842046E+002                    2.89191190E-009    4683.08  <-- SCF
      7  -3.59842046E+002                    1.04847267E-010    4741.70  <-- SCF
      8  -3.59842046E+002                    4.78537604E-012    4800.55  <-- SCF
      9  -3.59842046E+002                    4.63230845E-014    4857.76  <-- SCF
------------------------------------------------------------------------ <-- SCF
 
Final energy =  -359.8420463684     eV
(energy not corrected for finite basis set)
 

 ************************************** Forces **************************************
 *                                                                                  *
 *                           Cartesian components (eV/A)                            *
 * -------------------------------------------------------------------------------- *
 *                         x                    y                    z              *
 *                                                                                  *
 * H               1     -0.00000              0.01009              0.29717         *
 * H               2      0.00000              0.08697             -0.04355         *
 * H               3     -0.00000             -0.13011              0.07059         *
 * H               4     -0.00000             -0.13015             -0.07061         *
 * H               5     -0.00000              0.08700              0.04357         *
 * H               6      0.00000              0.01010             -0.29711         *
 * H               7     -0.00000              0.13008             -0.07057         *
 * H               8      0.00000             -0.08694              0.04353         *
 * H               9      0.00000             -0.01009             -0.29716         *
 * H              10      0.00000              0.13014              0.07061         *
 * H              11      0.00000             -0.08700             -0.04357         *
 * H              12      0.00000             -0.01010              0.29711         *
 * H              13     -0.00000             -0.13009              0.07058         *
 * H              14      0.00000              0.08695             -0.04354         *
 * H              15     -0.00000              0.01009              0.29716         *
 * H              16      0.00000             -0.13013             -0.07060         *
 * H              17     -0.00000              0.08699              0.04356         *
 * H              18      0.00000              0.01010             -0.29711         *
 * H              19     -0.00000              0.13011             -0.07059         *
 * H              20     -0.00000             -0.08697              0.04355         *
 * H              21      0.00000             -0.01009             -0.29717         *
 * H              22     -0.00000              0.13013              0.07060         *
 * H              23      0.00000             -0.08698             -0.04356         *
 * H              24      0.00000             -0.01010              0.29711         *
 *                                                                                  *
 ************************************************************************************

 ***************** Stress Tensor *****************
 *                                               *
 *          Cartesian components (GPa)           *
 * --------------------------------------------- *
 *             x             y             z     *
 *                                               *
 *  x   -120.029572     -0.000000     -0.000000  *
 *  y     -0.000000   -118.478559      0.000259  *
 *  z     -0.000000      0.000259   -122.082663  *
 *                                               *
 *  Pressure:  120.1969                          *
 *                                               *
 *************************************************
  
 +------------+-------------+-------------+-----------------+ <-- min LBFGS
 |    Step    |   lambda    |   F.delta'  |    enthalpy     | <-- min LBFGS
 +------------+-------------+-------------+-----------------+ <-- min LBFGS
 |  previous  |    0.000000 |    0.084256 |     -321.985436 | <-- min LBFGS
 | trial step |    1.000000 |   -0.047275 |     -321.991853 | <-- min LBFGS
 +------------+-------------+-------------+-----------------+ <-- min LBFGS
  
 LBFGS: finished iteration     3 with enthalpy= -3.21991853E+002 eV
  
 +-----------+-----------------+-----------------+------------+-----+ <-- LBFGS
 | Parameter |      value      |    tolerance    |    units   | OK? | <-- LBFGS
 +-----------+-----------------+-----------------+------------+-----+ <-- LBFGS
 |  dE/ion   |   2.673500E-004 |   1.000000E-009 |         eV | No  | <-- LBFGS
 |  |F|max   |   2.973455E-001 |   1.000000E-005 |       eV/A | No  | <-- LBFGS
 |  |dR|max  |   8.352452E-003 |   1.000000E-005 |          A | No  | <-- LBFGS
 |   Smax    |   2.082663E+000 |   1.000000E-005 |        GPa | No  | <-- LBFGS
 +-----------+-----------------+-----------------+------------+-----+ <-- LBFGS
  

================================================================================
 Starting LBFGS iteration          4 ...
================================================================================
  
 +------------+-------------+-------------+-----------------+ <-- min LBFGS
 |    Step    |   lambda    |   F.delta'  |    enthalpy     | <-- min LBFGS
 +------------+-------------+-------------+-----------------+ <-- min LBFGS
 |  previous  |    0.000000 |    0.091937 |     -321.991853 | <-- min LBFGS
 +------------+-------------+-------------+-----------------+ <-- min LBFGS
  

--------------------------------------------------------------------------------
 LBFGS: starting iteration         4 with trial guess (lambda=  1.000000)
--------------------------------------------------------------------------------

                           -------------------------------
                                      Unit Cell
                           -------------------------------
        Real Lattice(A)              Reciprocal Lattice(1/A)
     2.9261326     0.0000000     0.0000000        2.147266109  -0.000000000  -0.000000000
     0.0000000     5.4197847    -0.0000013       -0.000000000   1.159305335   0.000000272
     0.0000000    -0.0000008     3.2487627       -0.000000000   0.000000454   1.934024064

                       Lattice parameters(A)       Cell Angles
                    a =      2.926133          alpha =   90.000027
                    b =      5.419785          beta  =   90.000000
                    c =      3.248763          gamma =   90.000000

                Current cell volume =            51.522156 A**3

                           -------------------------------
                                     Cell Contents
                           -------------------------------

            xxxxxxxxxxxxxxxxxxxxxxxxxxxxxxxxxxxxxxxxxxxxxxxxxxxxxxxxxxxxxxxxx
            x  Element         Atom        Fractional coordinates of atoms  x
            x                 Number           u          v          w      x
            x---------------------------------------------------------------x
            x  H                 1         0.000000   0.000646   0.118843   x
            x  H                 2        -0.000000   0.134902   0.454102   x
            x  H                 3         0.000000   0.249671   0.331086   x
            x  H                 4         0.500000   0.249670   0.168917   x
            x  H                 5         0.500000   0.134904   0.045894   x
            x  H                 6         0.500000   0.000647   0.381158   x
            x  H                 7         0.500000   0.250328   0.668914   x
            x  H                 8         0.500000   0.365098   0.545898   x
            x  H                 9         0.500000   0.499354   0.881157   x
            x  H                10         0.500000   0.750330   0.831083   x
            x  H                11         0.500000   0.865096   0.954106   x
            x  H                12         0.500000   0.999353   0.618842   x
            x  H                13         0.500000   0.749672   0.331086   x
            x  H                14         0.500000   0.634902   0.454102   x
            x  H                15         0.500000   0.500646   0.118843   x
            x  H                16        -0.000000   0.749670   0.168917   x
            x  H                17         0.000000   0.634904   0.045894   x
            x  H                18         0.000000   0.500647   0.381158   x
            x  H                19         0.000000   0.750329   0.668914   x
            x  H                20         0.000000   0.865098   0.545898   x
            x  H                21        -0.000000   0.999354   0.881157   x
            x  H                22         0.000000   0.250330   0.831083   x
            x  H                23        -0.000000   0.365096   0.954106   x
            x  H                24        -0.000000   0.499353   0.618842   x
            xxxxxxxxxxxxxxxxxxxxxxxxxxxxxxxxxxxxxxxxxxxxxxxxxxxxxxxxxxxxxxxxx


------------------------------------------------------------------------ <-- SCF
SCF loop      Energy                           Energy gain       Timer   <-- SCF
                                               per atom          (sec)   <-- SCF
------------------------------------------------------------------------ <-- SCF
Initial  -3.60364024E+002                                       5003.11  <-- SCF
      1  -3.60570508E+002                    8.60352365E-003    5075.71  <-- SCF
      2  -3.60571208E+002                    2.91687173E-005    5152.90  <-- SCF
      3  -3.60547686E+002                   -9.80102144E-004    5232.23  <-- SCF
      4  -3.60547296E+002                   -1.62475539E-005    5309.00  <-- SCF
      5  -3.60547297E+002                    3.02326987E-008    5386.21  <-- SCF
      6  -3.60547297E+002                    6.50932386E-009    5463.97  <-- SCF
      7  -3.60547297E+002                    1.89523851E-010    5524.09  <-- SCF
      8  -3.60547297E+002                    2.15019674E-011    5579.32  <-- SCF
      9  -3.60547297E+002                    5.13582024E-013    5634.37  <-- SCF
     10  -3.60547297E+002                    7.04916504E-014    5691.74  <-- SCF
------------------------------------------------------------------------ <-- SCF
 
Final energy =  -360.5472968580     eV
(energy not corrected for finite basis set)
 

 ************************************** Forces **************************************
 *                                                                                  *
 *                           Cartesian components (eV/A)                            *
 * -------------------------------------------------------------------------------- *
 *                         x                    y                    z              *
 *                                                                                  *
 * H               1     -0.00000             -0.02424             -0.43928         *
 * H               2      0.00000             -0.25977              0.19721         *
 * H               3     -0.00000              0.28243             -0.14091         *
 * H               4      0.00000              0.28249              0.14095         *
 * H               5     -0.00000             -0.25984             -0.19727         *
 * H               6     -0.00000             -0.02424              0.43916         *
 * H               7     -0.00000             -0.28238              0.14088         *
 * H               8      0.00000              0.25972             -0.19717         *
 * H               9      0.00000              0.02424              0.43926         *
 * H              10     -0.00000             -0.28248             -0.14094         *
 * H              11      0.00000              0.25982              0.19727         *
 * H              12      0.00000              0.02424             -0.43916         *
 * H              13     -0.00000              0.28239             -0.14089         *
 * H              14      0.00000             -0.25973              0.19718         *
 * H              15     -0.00000             -0.02424             -0.43926         *
 * H              16      0.00000              0.28246              0.14092         *
 * H              17      0.00000             -0.25980             -0.19725         *
 * H              18     -0.00000             -0.02424              0.43916         *
 * H              19     -0.00000             -0.28243              0.14091         *
 * H              20     -0.00000              0.25977             -0.19721         *
 * H              21      0.00000              0.02424              0.43928         *
 * H              22     -0.00000             -0.28245             -0.14092         *
 * H              23      0.00000              0.25980              0.19725         *
 * H              24      0.00000              0.02424             -0.43916         *
 *                                                                                  *
 ************************************************************************************

 ***************** Stress Tensor *****************
 *                                               *
 *          Cartesian components (GPa)           *
 * --------------------------------------------- *
 *             x             y             z     *
 *                                               *
 *  x   -113.604777     -0.000000     -0.000000  *
 *  y     -0.000000   -119.383048     -0.000443  *
 *  z     -0.000000     -0.000443   -111.696038  *
 *                                               *
 *  Pressure:  114.8946                          *
 *                                               *
 *************************************************
  
 +------------+-------------+-------------+-----------------+ <-- min LBFGS
 |    Step    |   lambda    |   F.delta'  |    enthalpy     | <-- min LBFGS
 +------------+-------------+-------------+-----------------+ <-- min LBFGS
 |  previous  |    0.000000 |    0.091937 |     -321.991853 | <-- min LBFGS
 | trial step |    1.000000 |   -0.235259 |     -321.958176 | <-- min LBFGS
 +------------+-------------+-------------+-----------------+ <-- min LBFGS
  

--------------------------------------------------------------------------------
 LBFGS: improving iteration         4 with line minimization (lambda=  0.280985)
--------------------------------------------------------------------------------

                           -------------------------------
                                      Unit Cell
                           -------------------------------
        Real Lattice(A)              Reciprocal Lattice(1/A)
     2.9125608    -0.0000000     0.0000000        2.157271842   0.000000000  -0.000000000
    -0.0000000     5.3952602    -0.0000009        0.000000000   1.164575029   0.000000189
     0.0000000    -0.0000005     3.2335137       -0.000000000   0.000000316   1.943144800

                       Lattice parameters(A)       Cell Angles
                    a =      2.912561          alpha =   90.000019
                    b =      5.395260          beta  =   90.000000
                    c =      3.233514          gamma =   90.000000

                Current cell volume =            50.811509 A**3

                           -------------------------------
                                     Cell Contents
                           -------------------------------

            xxxxxxxxxxxxxxxxxxxxxxxxxxxxxxxxxxxxxxxxxxxxxxxxxxxxxxxxxxxxxxxxx
            x  Element         Atom        Fractional coordinates of atoms  x
            x                 Number           u          v          w      x
            x---------------------------------------------------------------x
            x  H                 1         0.000000   0.000494   0.116887   x
            x  H                 2        -0.000000   0.134610   0.454429   x
            x  H                 3         0.000000   0.251503   0.329280   x
            x  H                 4         0.500000   0.251502   0.170723   x
            x  H                 5         0.500000   0.134612   0.045567   x
            x  H                 6         0.500000   0.000495   0.383113   x
            x  H                 7         0.500000   0.248497   0.670720   x
            x  H                 8         0.500000   0.365389   0.545571   x
            x  H                 9         0.500000   0.499506   0.883113   x
            x  H                10         0.500000   0.748498   0.829277   x
            x  H                11         0.500000   0.865388   0.954433   x
            x  H                12         0.500000   0.999505   0.616887   x
            x  H                13         0.500000   0.751503   0.329280   x
            x  H                14         0.500000   0.634611   0.454429   x
            x  H                15         0.500000   0.500494   0.116887   x
            x  H                16        -0.000000   0.751502   0.170723   x
            x  H                17         0.000000   0.634612   0.045567   x
            x  H                18         0.000000   0.500495   0.383113   x
            x  H                19         0.000000   0.748497   0.670720   x
            x  H                20        -0.000000   0.865390   0.545571   x
            x  H                21        -0.000000   0.999506   0.883113   x
            x  H                22         0.000000   0.248498   0.829277   x
            x  H                23        -0.000000   0.365388   0.954433   x
[...]
      H     1      S                    1.000
      H     2      S                    1.026
      H     3      S                    0.973
      H     4      S                    0.973
      H     5      S                    1.026
      H     6      S                    1.000
      H     7      S                    0.973
      H     8      S                    1.026
      H     9      S                    1.000
      H    10      S                    0.973
      H    11      S                    1.026
      H    12      S                    1.000
      H    13      S                    0.973
      H    14      S                    1.026
      H    15      S                    1.000
      H    16      S                    0.973
      H    17      S                    1.026
      H    18      S                    1.000
      H    19      S                    0.973
      H    20      S                    1.026
      H    21      S                    1.000
      H    22      S                    0.973
      H    23      S                    1.026
      H    24      S                    1.000
  -------------------------------------------
                           Total:      24.000
  -------------------------------------------

     Atomic Populations (Mulliken)
     -----------------------------
Species          Ion     s      p      d      f     Total  Charge (e)
=====================================================================
  H               1     1.00   0.00   0.00   0.00   1.00    -0.00
  H               2     1.03   0.00   0.00   0.00   1.03    -0.03
  H               3     0.97   0.00   0.00   0.00   0.97     0.03
  H               4     0.97   0.00   0.00   0.00   0.97     0.03
  H               5     1.03   0.00   0.00   0.00   1.03    -0.03
  H               6     1.00   0.00   0.00   0.00   1.00    -0.00
  H               7     0.97   0.00   0.00   0.00   0.97     0.03
  H               8     1.03   0.00   0.00   0.00   1.03    -0.03
  H               9     1.00   0.00   0.00   0.00   1.00    -0.00
  H              10     0.97   0.00   0.00   0.00   0.97     0.03
  H              11     1.03   0.00   0.00   0.00   1.03    -0.03
  H              12     1.00   0.00   0.00   0.00   1.00    -0.00
  H              13     0.97   0.00   0.00   0.00   0.97     0.03
  H              14     1.03   0.00   0.00   0.00   1.03    -0.03
  H              15     1.00   0.00   0.00   0.00   1.00    -0.00
  H              16     0.97   0.00   0.00   0.00   0.97     0.03
  H              17     1.03   0.00   0.00   0.00   1.03    -0.03
  H              18     1.00   0.00   0.00   0.00   1.00    -0.00
  H              19     0.97   0.00   0.00   0.00   0.97     0.03
  H              20     1.03   0.00   0.00   0.00   1.03    -0.03
  H              21     1.00   0.00   0.00   0.00   1.00    -0.00
  H              22     0.97   0.00   0.00   0.00   0.97     0.03
  H              23     1.03   0.00   0.00   0.00   1.03    -0.03
  H              24     1.00   0.00   0.00   0.00   1.00    -0.00
=====================================================================

                 Bond                   Population      Length (A)
======================================================================
              H 4  -- H 5                    1.56        0.74890
              H 22 -- H 23                   1.56        0.74890
              H 16 -- H 17                   1.56        0.74890
              H 10 -- H 11                   1.56        0.74890
              H 2  -- H 3                    1.56        0.74890
              H 7  -- H 8                    1.56        0.74890
              H 13 -- H 14                   1.56        0.74890
              H 19 -- H 20                   1.56        0.74890
              H 1  -- H 21                   1.45        0.75807
              H 9  -- H 15                   1.45        0.75807
              H 18 -- H 24                   1.45        0.75807
              H 6  -- H 12                   1.45        0.75807
              H 8  -- H 9                    0.02        1.31149
              H 14 -- H 15                   0.02        1.31149
              H 20 -- H 21                   0.02        1.31149
              H 1  -- H 2                    0.02        1.31149
              H 11 -- H 12                   0.02        1.31149
              H 23 -- H 24                   0.02        1.31149
              H 5  -- H 6                    0.02        1.31149
              H 17 -- H 18                   0.02        1.31149
              H 10 -- H 14                  -0.11        1.35507
              H 16 -- H 20                  -0.11        1.35507
              H 2  -- H 22                  -0.11        1.35507
              H 4  -- H 8                   -0.11        1.35507
              H 17 -- H 19                  -0.11        1.35507
              H 5  -- H 7                   -0.11        1.35507
              H 11 -- H 13                  -0.11        1.35507
              H 3  -- H 23                  -0.11        1.35507
              H 6  -- H 13                   0.08        1.35871
              H 19 -- H 24                   0.08        1.35871
              H 7  -- H 12                   0.08        1.35871
              H 3  -- H 18                   0.08        1.35871
              H 1  -- H 16                   0.08        1.35871
              H 9  -- H 10                   0.08        1.35871
              H 4  -- H 15                   0.08        1.35871
              H 21 -- H 22                   0.08        1.35871
              H 2  -- H 20                  -0.04        1.47312
              H 8  -- H 14                  -0.04        1.47312
              H 17 -- H 23                  -0.04        1.47312
              H 5  -- H 11                  -0.04        1.47312
              H 4  -- H 6                   -0.09        1.51266
              H 16 -- H 18                  -0.09        1.51266
              H 22 -- H 24                  -0.09        1.51266
              H 10 -- H 12                  -0.09        1.51266
              H 13 -- H 15                  -0.09        1.51267
              H 1  -- H 3                   -0.09        1.51267
              H 7  -- H 9                   -0.09        1.51267
              H 19 -- H 21                  -0.09        1.51267
              H 13 -- H 16                  -0.00        1.54246
              H 3  -- H 4                   -0.00        1.54246
              H 10 -- H 19                  -0.00        1.54246
              H 7  -- H 22                  -0.00        1.54246
              H 18 -- H 23                  -0.19        1.55269
              H 17 -- H 24                  -0.19        1.55269
              H 6  -- H 11                  -0.19        1.55269
              H 5  -- H 12                  -0.19        1.55269
              H 1  -- H 20                  -0.19        1.55269
              H 2  -- H 21                  -0.19        1.55269
              H 8  -- H 15                  -0.19        1.55269
              H 9  -- H 14                  -0.19        1.55269
              H 16 -- H 19                  -0.24        1.61309
              H 4  -- H 7                   -0.24        1.61309
              H 10 -- H 13                  -0.24        1.61309
              H 3  -- H 22                  -0.24        1.61309
              H 12 -- H 13                  -0.15        1.63216
              H 18 -- H 19                  -0.15        1.63216
              H 6  -- H 7                   -0.15        1.63216
              H 3  -- H 24                  -0.15        1.63216
              H 4  -- H 9                   -0.15        1.63216
              H 1  -- H 22                  -0.15        1.63216
              H 10 -- H 15                  -0.15        1.63216
              H 16 -- H 21                  -0.15        1.63216
              H 12 -- H 20                  -0.12        1.63993
              H 8  -- H 24                  -0.12        1.63993
              H 14 -- H 18                  -0.12        1.63993
              H 2  -- H 6                   -0.12        1.63993
              H 9  -- H 23                  -0.12        1.63993
              H 11 -- H 21                  -0.12        1.63993
              H 1  -- H 5                   -0.12        1.63993
              H 15 -- H 17                  -0.12        1.63993
              H 15 -- H 18                  -0.14        1.68605
              H 1  -- H 6                   -0.14        1.68605
              H 12 -- H 21                  -0.14        1.68605
              H 9  -- H 24                  -0.14        1.68605
              H 6  -- H 20                  -0.12        1.70480
              H 14 -- H 24                  -0.12        1.70480
              H 2  -- H 12                  -0.12        1.70480
              H 8  -- H 18                  -0.12        1.70481
              H 15 -- H 23                  -0.12        1.70481
              H 9  -- H 17                  -0.12        1.70481
              H 5  -- H 21                  -0.12        1.70481
              H 1  -- H 11                  -0.12        1.70481
              H 2  -- H 7                   -0.18        1.72345
              H 14 -- H 19                  -0.18        1.72345
              H 13 -- H 20                  -0.18        1.72345
              H 3  -- H 8                   -0.18        1.72345
              H 10 -- H 17                  -0.18        1.72345
              H 5  -- H 22                  -0.18        1.72345
              H 11 -- H 16                  -0.18        1.72345
              H 4  -- H 23                  -0.18        1.72345
              H 3  -- H 7                   -0.25        1.82007
              H 13 -- H 19                  -0.25        1.82007
              H 4  -- H 22                  -0.25        1.82008
              H 10 -- H 16                  -0.25        1.82008
              H 8  -- H 22                  -0.21        1.83398
              H 14 -- H 16                  -0.21        1.83398
              H 2  -- H 4                   -0.21        1.83398
              H 10 -- H 20                  -0.21        1.83398
              H 3  -- H 5                   -0.21        1.83399
              H 11 -- H 19                  -0.21        1.83399
              H 13 -- H 17                  -0.21        1.83399
              H 7  -- H 23                  -0.21        1.83399
              H 11 -- H 17                  -0.19        1.93639
              H 5  -- H 23                  -0.19        1.93639
              H 14 -- H 20                  -0.19        1.93639
              H 2  -- H 8                   -0.19        1.93639
              H 8  -- H 23                  -0.34        1.97397
              H 11 -- H 20                  -0.34        1.97397
              H 14 -- H 17                  -0.34        1.97397
              H 2  -- H 5                   -0.34        1.97397
              H 4  -- H 12                  -0.27        1.97888
              H 16 -- H 24                  -0.27        1.97888
              H 18 -- H 22                  -0.27        1.97888
              H 6  -- H 10                  -0.27        1.97888
              H 9  -- H 13                  -0.27        1.97889
              H 3  -- H 21                  -0.27        1.97889
              H 1  -- H 19                  -0.27        1.97889
              H 7  -- H 15                  -0.27        1.97889
              H 9  -- H 22                  -0.22        1.98937
              H 1  -- H 4                   -0.22        1.98937
              H 15 -- H 16                  -0.22        1.98937
              H 10 -- H 21                  -0.22        1.98938
              H 12 -- H 19                  -0.22        1.98938
              H 3  -- H 6                   -0.22        1.98938
              H 13 -- H 18                  -0.22        1.98938
              H 7  -- H 24                  -0.22        1.98938
              H 5  -- H 15                  -0.11        1.98985
              H 1  -- H 17                  -0.11        1.98985
              H 21 -- H 23                  -0.11        1.98985
              H 9  -- H 11                  -0.11        1.98985
              H 6  -- H 14                  -0.11        1.98985
              H 2  -- H 18                  -0.11        1.98985
              H 20 -- H 24                  -0.11        1.98985
              H 8  -- H 12                  -0.11        1.98985
              H 5  -- H 9                   -0.18        2.03731
              H 17 -- H 21                  -0.18        2.03731
              H 1  -- H 23                  -0.18        2.03731
              H 11 -- H 15                  -0.18        2.03731
              H 12 -- H 14                  -0.18        2.03732
              H 2  -- H 24                  -0.18        2.03732
              H 18 -- H 20                  -0.18        2.03732
              H 6  -- H 8                   -0.18        2.03732
              H 5  -- H 8                   -0.23        2.04039
              H 17 -- H 20                  -0.23        2.04039
              H 2  -- H 23                  -0.23        2.04039
              H 11 -- H 14                  -0.23        2.04039
              H 6  -- H 16                  -0.04        2.09761
              H 10 -- H 24                  -0.04        2.09761
              H 4  -- H 18                  -0.04        2.09761
              H 12 -- H 22                  -0.04        2.09761
              H 1  -- H 13                  -0.04        2.09762
              H 3  -- H 15                  -0.04        2.09762
              H 7  -- H 21                  -0.04        2.09762
              H 9  -- H 19                  -0.04        2.09762
              H 9  -- H 18                  -0.23        2.17112
              H 6  -- H 21                  -0.23        2.17112
              H 1  -- H 12                  -0.23        2.17112
              H 15 -- H 24                  -0.23        2.17112
              H 3  -- H 20                  -0.07        2.18458
              H 2  -- H 19                  -0.07        2.18458
              H 8  -- H 13                  -0.07        2.18458
              H 7  -- H 14                  -0.07        2.18458
              H 17 -- H 22                  -0.07        2.18459
              H 16 -- H 23                  -0.07        2.18459
              H 4  -- H 11                  -0.07        2.18459
              H 5  -- H 10                  -0.07        2.18459
              H 3  -- H 12                  -0.19        2.19119
              H 6  -- H 19                  -0.19        2.19119
              H 13 -- H 24                  -0.19        2.19119
              H 7  -- H 18                  -0.19        2.19119
              H 15 -- H 22                  -0.19        2.19119
              H 4  -- H 21                  -0.19        2.19119
              H 9  -- H 16                  -0.19        2.19119
              H 1  -- H 10                  -0.19        2.19119
              H 8  -- H 10                  -0.03        2.26717
              H 2  -- H 16                  -0.03        2.26717
              H 20 -- H 22                  -0.03        2.26717
              H 4  -- H 14                  -0.03        2.26717
              H 7  -- H 11                  -0.03        2.26718
              H 19 -- H 23                  -0.03        2.26718
              H 5  -- H 13                  -0.03        2.26718
              H 3  -- H 17                  -0.03        2.26718
              H 12 -- H 16                  -0.06        2.44989
              H 10 -- H 18                  -0.06        2.44989
              H 4  -- H 24                  -0.06        2.44989
              H 6  -- H 22                  -0.06        2.44989
              H 3  -- H 9                   -0.06        2.44989
              H 13 -- H 21                  -0.06        2.44989
              H 1  -- H 7                   -0.06        2.44989
              H 15 -- H 19                  -0.06        2.44989
              H 7  -- H 20                  -0.01        2.56140
              H 8  -- H 19                  -0.01        2.56140
              H 2  -- H 13                  -0.01        2.56140
              H 3  -- H 14                  -0.01        2.56140
              H 10 -- H 23                  -0.01        2.56141
              H 11 -- H 22                  -0.01        2.56141
              H 5  -- H 16                  -0.01        2.56141
              H 4  -- H 17                  -0.01        2.56141
              H 8  -- H 17                  -0.02        2.60903
              H 14 -- H 23                  -0.02        2.60903
              H 5  -- H 20                  -0.02        2.60903
              H 2  -- H 11                  -0.02        2.60903
              H 6  -- H 17                   0.04        2.68579
              H 5  -- H 18                   0.04        2.68579
              H 11 -- H 24                   0.04        2.68579
              H 12 -- H 23                   0.04        2.68579
              H 2  -- H 15                   0.04        2.68580
              H 1  -- H 14                   0.04        2.68580
              H 8  -- H 21                   0.04        2.68580
              H 9  -- H 20                   0.04        2.68580
              H 4  -- H 13                  -0.02        2.74543
              H 19 -- H 22                  -0.02        2.74543
              H 3  -- H 16                  -0.02        2.74543
              H 7  -- H 10                  -0.02        2.74543
              H 4  -- H 20                   0.04        2.80387
              H 14 -- H 22                   0.04        2.80387
              H 8  -- H 16                   0.04        2.80387
              H 2  -- H 10                   0.04        2.80387
              H 13 -- H 23                   0.04        2.80387
              H 3  -- H 11                   0.04        2.80387
              H 7  -- H 17                   0.04        2.80387
              H 5  -- H 19                   0.04        2.80387
              H 12 -- H 17                   0.03        2.80686
              H 5  -- H 24                   0.03        2.80686
              H 6  -- H 23                   0.03        2.80686
              H 11 -- H 18                   0.03        2.80686
              H 2  -- H 9                    0.03        2.80687
              H 14 -- H 21                   0.03        2.80687
              H 15 -- H 20                   0.03        2.80687
              H 1  -- H 8                    0.03        2.80687
              H 6  -- H 15                   0.01        2.82860
              H 1  -- H 18                   0.01        2.82860
              H 21 -- H 24                   0.01        2.82860
              H 9  -- H 12                   0.01        2.82860
              H 7  -- H 13                  -0.02        2.90609
              H 3  -- H 19                  -0.02        2.90609
              H 4  -- H 10                  -0.02        2.90610
              H 16 -- H 22                  -0.02        2.90610
======================================================================


Writing analysis data to Cmca-12.castep_bin

Writing model to Cmca-12.check
 
 A BibTeX formatted list of references used in this run has been written to 
 Cmca-12.bib
 
Initialisation time =     10.35 s
Calculation time    =  23806.22 s
Finalisation time   =     63.96 s
Total time          =  23880.53 s
Peak Memory Use     = 1127324 kB
  
Overall parallel efficiency rating: Excellent (92%)                             
  
Data was distributed by:-
k-point (36-way); efficiency rating: Excellent (92%)                            
