 +-------------------------------------------------+
 |                                                 |
 |      CCC   AA    SSS  TTTTT  EEEEE  PPPP        |
 |     C     A  A  S       T    E      P   P       |
 |     C     AAAA   SS     T    EEE    PPPP        |
 |     C     A  A     S    T    E      P           |
 |      CCC  A  A  SSS     T    EEEEE  P           |
 |                                                 |
 +-------------------------------------------------+
 |                                                 |
 | Welcome to Academic Release CASTEP version 18.1 |          
 | Ab Initio Total Energy Program                  |
 |                                                 |
 | Authors:                                        |
 | M. Segall, M. Probert, C. Pickard, P. Hasnip,   |
 | S. Clark, K. Refson, J. R. Yates, M. Payne      |
 |                                                 |
 | Contributors:                                   |
 | P. Lindan, P. Haynes, J. White, V. Milman,      |
 | N. Govind, M. Gibson, P. Tulip, V. Cocula,      |
 | B. Montanari, D. Quigley, M. Glover,            |
 | L. Bernasconi, A. Perlov, M. Plummer,           |
 | E. McNellis, J. Meyer, J. Gale, D. Jochym       |
 | J. Aarons, B. Walker, R. Gillen, D. Jones       |
 | T. Green, I. J. Bush, C. J. Armstrong,          |
 | E. J. Higgins, E. L. Brown, M. S. McFly,        |
 | J. Wilkins, B-C. Shih, P. J. P. Byrne           |
 |                                                 |
 | Copyright (c) 2000 - 2017                       |
 |                                                 |
 |     Distributed under the terms of an           |
 |     Agreement between the United Kingdom        |
 |     Car-Parrinello (UKCP) Consortium,           |
 |     Daresbury Laboratory and Accelrys, Inc.     |
 |                                                 |
 | Please cite                                     |
 |                                                 |
 |     "First principles methods using CASTEP"     |
 |                                                 |
 |         Zeitschrift fuer Kristallographie       |
 |           220(5-6) pp. 567-570 (2005)           |
 |                                                 |
 | S. J. Clark, M. D. Segall, C. J. Pickard,       |
 | P. J. Hasnip, M. J. Probert, K. Refson,         |
 | M. C. Payne                                     |
 |                                                 |
 |       in all publications arising from          |
 |              your use of CASTEP                 |
 |                                                 |
 +-------------------------------------------------+


 Compiled for linux_x86_64_gfortran4.8 on Thu, 19 Jul 2018 15:42:32 +0100
 from code version 70483bd0ad64+  Sun, 10 Dec 2017 12:18:29 +0000
 Compiler: GNU Fortran 4.8.5; Optimisation: fast
 MATHLIBS: Intel MKL(2018.0.0) (LAPACK version 3.7.0)
 FFT Lib : mkl
 Fundamental constants values: CODATA 2014

 Run started: Thu, 06 Aug 2020 12:57:28 +0100
 +-------------------------------------------------+
 |                                                 |
 |  D D D D    F F F F F  P P P P     T T T T T    |
 |  D       D  F          P       P       T        |
 |  D       D  F F F F    P P P P         T        |
 |  D       D  F          P               T        |
 |  D D D D    F          P               T        |
 |                                                 |
 +-------------------------------------------------+
 |                                                 |
 | Welcome to Castep Linear Response (DFPT)        |
 |                                                 |
 | Copyright (c) 2006 - 2017                       |
 |                                                 |
 | Please cite the following publications in all   |
 | work arising from your use of CASTEP LR.        |
 |                                                 |
 | K. Refson, S. J. Clark and P. R. Tulip          |
 | Variational density functional perturbation     |
 | theory for dielectrics and lattice dynamics     |
 | Phys. Rev. B 73(15), 155114 (2006)              |
 +-------------------------------------------------+


 Atomic calculation performed for H: 1s1

 Converged in 41 iterations to an ae energy of -12.488 eV

   ============================================================                
   | Pseudopotential Report - Date of generation  6-08-2020   |                
   ------------------------------------------------------------                
   | Element: H Ionic charge:  1.00 Level of theory: PBE      |                
   | Atomic Solver: Koelling-Harmon                           |                
   |                                                          |                
   |               Reference Electronic Structure             |                
   |         Orbital         Occupation         Energy        |                
   |            1s              1.000           -0.239        |                
   |                                                          |                
   |                 Pseudopotential Definition               |                
   |        Beta     l      e      Rc     scheme   norm       |                
   |         loc     0   -0.239   0.702     qc      1         |                
   |                                                          |                
   | No charge augmentation                                   |                
   | No partial core correction                               |                
   ------------------------------------------------------------                
   | "0|0.7|2|6|8|10L(qc=10)"                                 |                
   ------------------------------------------------------------                
   |      Author: Chris J. Pickard, Cambridge University      |                
   ============================================================                

 Pseudo atomic calculation performed for H 1s1

 Converged in 24 iterations to a total energy of -12.4843 eV

 Calculation parallelised over 16 processes.
 Data is distributed by k-point(16-way)

 ************************************ Title ************************************
 

 ***************************** General Parameters ******************************
  
 output verbosity                               : normal  (1)
 write checkpoint data to                       : Hibam.check
 type of calculation                            : phonon calculation
 stress calculation                             : on
 density difference calculation                 : off
 electron localisation func (ELF) calculation   : off
 Hirshfeld analysis                             : off
 unlimited duration calculation
 timing information                             : on
 memory usage estimate                          : on
 write extra output files                       : on
 write final potential to formatted file        : off
 write final density to formatted file          : off
 write structure in CELL formatted file         : on
 write BibTeX reference list                    : on
 write OTFG pseudopotential files               : on
 write electrostatic potential file             : on
 write bands file                               : on
 checkpoint writing                             : both castep_bin and check files
  
 output         length unit                     : A
 output           mass unit                     : amu
 output           time unit                     : ps
 output         charge unit                     : e
 output           spin unit                     : hbar/2
 output         energy unit                     : eV
 output          force unit                     : eV/A
 output       velocity unit                     : A/ps
 output       pressure unit                     : GPa
 output     inv_length unit                     : 1/A
 output      frequency unit                     : cm-1
 output force constant unit                     : eV/A**2
 output         volume unit                     : A**3
 output   IR intensity unit                     : (D/A)**2/amu
 output         dipole unit                     : D
 output         efield unit                     : eV/A/e
 output        entropy unit                     : J/mol/K
  
 wavefunctions paging                           : none
 random number generator seed                   : randomised (125728913)
 data distribution                              : optimal for this architecture
 optimization strategy                          : maximize speed(+++)

 *********************** Exchange-Correlation Parameters ***********************
  
 using functional                               : Perdew Burke Ernzerhof
 relativistic treatment                         : Koelling-Harmon
 DFT+D: Semi-empirical dispersion correction    : off

 ************************* Pseudopotential Parameters **************************
  
 pseudopotential representation                 : reciprocal space
 <beta|phi> representation                      : reciprocal space
 spin-orbit coupling                            : off

 **************************** Basis Set Parameters *****************************
  
 plane wave basis set cut-off                   :  1200.0000   eV
 size of standard grid                          :     2.0000
 size of   fine   gmax                          :    35.4943   1/A
 finite basis set correction                    : automatic
 number of sample energies                      :          3
           sample  spacing                      :     5.0000   eV

 **************************** Electronic Parameters ****************************
  
 number of  electrons                           :  16.00    
 net charge of system                           :  0.000    
 treating system as non-spin-polarized
 number of bands                                :          8

 ********************* Electronic Minimization Parameters **********************
  
 Method: Treating system as non-metallic,
         and number of  SD  steps               :          1
         and number of  CG  steps               :          4
  
 total energy / atom convergence tol.           : 0.1000E-10   eV
 eigen-energy convergence tolerance             : 0.2000E-10   eV
 max force / atom convergence tol.              : ignored
 convergence tolerance window                   :          3   cycles
 max. number of SCF cycles                      :        100
 periodic dipole correction                     : NONE

 ************************** Density Mixing Parameters **************************
  
 density-mixing scheme                          : Broyden
 max. length of mixing history                  :         20
 charge density mixing amplitude                : 0.8000    
 cut-off energy for mixing                      :  1200.       eV

 *********************** Population Analysis Parameters ************************
  
 Population analysis with cutoff                :  3.000       A
 Population analysis output                     : summary and pdos components

 ****************************** Phonon Parameters ******************************
  
 phonon calculation method                      : linear response
 phonon convergence tolerance                   : 0.1000E-04   eV/A**2
 max. number of phonon cycles                   :         50
 max. number of phonon CG steps                 :          0
 convergence tolerance window                   :          2   cycles
 DFPT solver method                             : AllBands (Gonze variational method)
 preconditioning scheme                         : TPA     
 fine phonon calculation method                 : interpolation
 non-periodic force constant method             : Weighted cumulant sum
 LO/TO splitting term                           : included
 acoustic phonon sum rule                       : correct D(q) in recip-space
 Born effective charges                         : calculated
 Born charge sum rule                           : explicitly enforced
 Raman intensities                              : calculated
 Raman frequency window start                   :  0.000       eV
 Raman frequency window stop                    :  1.000       eV
 Raman tensor calculated using                  : finite displacement method
 phonon k-points                                : use reduced set
 phonon DOS                                     : not calculated
 backups results every                          :      14400   seconds
 band convergence tolerance                     : 0.1000E-08   eV

 *******************************************************************************
  

                           -------------------------------
                                      Unit Cell
                           -------------------------------
        Real Lattice(A)                      Reciprocal Lattice(1/A)
     2.9114770     0.0000000     0.0000000        2.158074887  -0.000000000   0.000000000
     0.0000000     2.9011300     0.0000000       -0.000000000   2.165771732   0.000000000
     0.0000000     0.0000000     5.7493469        0.000000000   0.000000000   1.092852017

                       Lattice parameters(A)       Cell Angles
                    a =      2.911477          alpha =   90.000000
                    b =      2.901130          beta  =   90.000000
                    c =      5.749347          gamma =   90.000000

                       Current cell volume =            48.562278       A**3
                                   density =             0.332090   AMU/A**3
                                           =             0.551448     g/cm^3

                           -------------------------------
                                     Cell Contents
                           -------------------------------
                         Total number of ions in cell =   16
                      Total number of species in cell =    1
                        Max number of any one species =   16

            xxxxxxxxxxxxxxxxxxxxxxxxxxxxxxxxxxxxxxxxxxxxxxxxxxxxxxxxxxxx
            x  Element    Atom        Fractional coordinates of atoms  x
            x            Number           u          v          w      x
            x----------------------------------------------------------x
            x  H            1         0.429381   0.394964   0.000000   x 
            x  H            2        -0.429381   0.394964   0.500000   x 
            x  H            3         0.429381  -0.394964   0.500000   x 
            x  H            4        -0.429381  -0.394964   0.000000   x 
            x  H            5         0.374074  -0.000000   0.250000   x 
            x  H            6        -0.374074   0.000000   0.750000   x 
            x  H            7         0.374074  -0.000000   0.750000   x 
            x  H            8        -0.374074   0.000000   0.250000   x 
            x  H            9         0.929381   0.894964   0.500000   x 
            x  H           10        -0.929381   0.894964   0.000000   x 
            x  H           11         0.929381  -0.894964   0.000000   x 
            x  H           12        -0.929381  -0.894964   0.500000   x 
            x  H           13         0.874074   0.500000   0.750000   x 
            x  H           14        -0.874074   0.500000   0.250000   x 
            x  H           15         0.874074   0.500000   0.250000   x 
            x  H           16        -0.874074   0.500000   0.750000   x 
            xxxxxxxxxxxxxxxxxxxxxxxxxxxxxxxxxxxxxxxxxxxxxxxxxxxxxxxxxxxx


                         No user defined ionic velocities

                           -------------------------------
                                   Details of Species
                           -------------------------------

                               Mass of species in AMU
                                    H    1.0079400

                          Electric Quadrupole Moment (Barn)
                                    H    0.0028600 Isotope  2

                          Files used for pseudopotentials:
                                    H 0|0.7|2|6|8|10L(qc=10)

                           -------------------------------
                              k-Points For BZ Sampling
                           -------------------------------
                       MP grid size for SCF calculation is  8  8  8
                            with an offset of   0.000  0.000  0.000
                       Number of kpoints used =            64

                           -------------------------------
                               Symmetry and Constraints
                           -------------------------------

                      Cell is a supercell containing 2 primitive cells
                      Maximum deviation from symmetry = 0.322090E-14     ANG

                      Number of symmetry operations   =          16
                      Number of ionic constraints     =           3
                      Point group of crystal =     8: D2h, mmm, 2/m 2/m 2/m
                      Space group of crystal =    72: Ibam, -I 2 2c

             Set iprint > 1 for details on symmetry rotations/translations

                         Centre of mass is constrained
             Set iprint > 1 for details of linear ionic constraints

                         Number of cell constraints= 3
                         Cell constraints are:  1 2 3 0 0 0

                         External pressure/stress (GPa)
                         50.00000   0.00000   0.00000
                                   50.00000   0.00000
                                             50.00000
  
+---------------- MEMORY AND SCRATCH DISK ESTIMATES PER PROCESS --------------+
|                                                     Memory          Disk    |
| Baseline code, static data and system overhead      415.0 MB         0.0 MB |
| BLAS internal memory storage                          0.0 MB         0.0 MB |
| Model and support data                               39.2 MB         0.0 MB |
| Electronic energy minimisation requirements          24.2 MB         0.0 MB |
| Force calculation requirements                       10.7 MB         0.0 MB |
| Stress calculation requirements                      13.5 MB         0.0 MB |
|                                               ----------------------------- |
| Approx. total storage required per process          478.4 MB         0.0 MB |
|                                                                             |
| Requirements will fluctuate during execution and may exceed these estimates |
+-----------------------------------------------------------------------------+
Calculating finite basis set correction with  3 cut-off energies.
Calculating total energy with cut-off of 1190.000 eV.
------------------------------------------------------------------------ <-- SCF
SCF loop      Energy                           Energy gain       Timer   <-- SCF
                                               per atom          (sec)   <-- SCF
------------------------------------------------------------------------ <-- SCF
Initial   4.18781628E+002                                          2.58  <-- SCF
      1  -1.98020438E+002                    3.85501291E+001       3.53  <-- SCF
      2  -2.47824075E+002                    3.11272734E+000       4.19  <-- SCF
      3  -2.48838092E+002                    6.33760552E-002       4.81  <-- SCF
      4  -2.47158680E+002                   -1.04963231E-001       5.99  <-- SCF
      5  -2.47105413E+002                   -3.32920794E-003       7.23  <-- SCF
      6  -2.47108113E+002                    1.68766292E-004       8.33  <-- SCF
      7  -2.47108430E+002                    1.97605360E-005       9.58  <-- SCF
      8  -2.47108431E+002                    7.20907021E-008      10.76  <-- SCF
      9  -2.47108431E+002                    6.24156536E-009      11.95  <-- SCF
     10  -2.47108431E+002                    1.64950462E-011      12.95  <-- SCF
     11  -2.47108431E+002                    2.00901204E-012      13.90  <-- SCF
     12  -2.47108431E+002                    8.76110512E-014      14.87  <-- SCF
------------------------------------------------------------------------ <-- SCF
 
Final energy =  -247.1084308421     eV
(energy not corrected for finite basis set)
 
Calculating total energy with cut-off of 1195.000 eV.
------------------------------------------------------------------------ <-- SCF
SCF loop      Energy                           Energy gain       Timer   <-- SCF
                                               per atom          (sec)   <-- SCF
------------------------------------------------------------------------ <-- SCF
Initial  -2.47108431E+002                                         15.68  <-- SCF
      1  -2.47109565E+002                    7.08848820E-005      16.44  <-- SCF
      2  -2.47109565E+002                    7.51400712E-011      17.64  <-- SCF
      3  -2.47109566E+002                    3.54012784E-008      18.81  <-- SCF
      4  -2.47109566E+002                    2.18413746E-009      19.98  <-- SCF
      5  -2.47109566E+002                    2.89962369E-011      21.02  <-- SCF
      6  -2.47109566E+002                    1.39271361E-012      21.95  <-- SCF
      7  -2.47109566E+002                    2.50748871E-013      22.90  <-- SCF
------------------------------------------------------------------------ <-- SCF
 
Final energy =  -247.1095656033     eV
(energy not corrected for finite basis set)
 
Calculating total energy with cut-off of 1200.000 eV.
------------------------------------------------------------------------ <-- SCF
SCF loop      Energy                           Energy gain       Timer   <-- SCF
                                               per atom          (sec)   <-- SCF
------------------------------------------------------------------------ <-- SCF
Initial  -2.47109566E+002                                         23.70  <-- SCF
      1  -2.47110655E+002                    6.80704132E-005      24.45  <-- SCF
      2  -2.47110655E+002                    7.26537300E-011      25.65  <-- SCF
      3  -2.47110655E+002                    3.33757955E-008      26.82  <-- SCF
      4  -2.47110655E+002                    1.98881920E-009      27.98  <-- SCF
      5  -2.47110655E+002                    2.68482556E-011      28.95  <-- SCF
      6  -2.47110655E+002                    4.50139539E-013      29.94  <-- SCF
      7  -2.47110655E+002                    2.87001719E-013      30.88  <-- SCF
------------------------------------------------------------------------ <-- SCF
 
Final energy =  -247.1106552973     eV
(energy not corrected for finite basis set)
 
 For future reference: finite basis dEtot/dlog(Ecut) =      -0.267380eV
 Total energy corrected for finite basis set =    -247.110665 eV

 Efield perturbation    1:  X                                            34.07s
  +---------------- MEMORY AND SCRATCH DISK ESTIMATES PER PROCESS --------------+
  |                                                     Memory          Disk    |
  | Baseline code, static data and system overhead      415.0 MB         0.0 MB |
  | BLAS internal memory storage                          0.0 MB         0.0 MB |
  | Model and support data                               39.6 MB         0.0 MB |
  | DFPT E-field response requirements                   24.7 MB         0.0 MB |
  |                                               ----------------------------- |
  | Approx. total storage required per process          479.3 MB         0.0 MB |
  |                                                                             |
  | Requirements will fluctuate during execution and may exceed these estimates |
  +-----------------------------------------------------------------------------+

 Efield perturbation    2:  Y                                            54.87s

 Efield perturbation    3:  Z                                            75.55s
 Perturbation    1 (of    6): H     1 X at q=( 0.000, 0.000, 0.000):     95.37s
  Parallel strategy changed for perturbation using 128 k-points
  Data is distributed by G-vector(1-way) and k-point(16-way) and band(1-way)
  +---------------- MEMORY AND SCRATCH DISK ESTIMATES PER PROCESS --------------+
  |                                                     Memory          Disk    |
  | Baseline code, static data and system overhead      415.0 MB         0.0 MB |
  | BLAS internal memory storage                          0.0 MB         0.0 MB |
  | Model and support data                               39.6 MB         0.0 MB |
  | DFPT phonon calculation requirements                 54.2 MB         0.0 MB |
  |                                               ----------------------------- |
  | Approx. total storage required per process          508.7 MB         0.0 MB |
  |                                                                             |
  | Requirements will fluctuate during execution and may exceed these estimates |
  +-----------------------------------------------------------------------------+
 Perturbation    2 (of    6): H     5 X at q=( 0.000, 0.000, 0.000):    131.82s
 Perturbation    3 (of    6): H     1 Y at q=( 0.000, 0.000, 0.000):    166.13s
 Perturbation    4 (of    6): H     5 Y at q=( 0.000, 0.000, 0.000):    200.15s
  Parallel strategy changed for perturbation using 256 k-points
  Data is distributed by G-vector(1-way) and k-point(16-way) and band(1-way)
  +---------------- MEMORY AND SCRATCH DISK ESTIMATES PER PROCESS --------------+
  |                                                     Memory          Disk    |
  | Baseline code, static data and system overhead      415.0 MB         0.0 MB |
  | BLAS internal memory storage                          0.0 MB         0.0 MB |
  | Model and support data                               39.6 MB         0.0 MB |
  | DFPT phonon calculation requirements                 99.2 MB         0.0 MB |
  |                                               ----------------------------- |
  | Approx. total storage required per process          553.8 MB         0.0 MB |
  |                                                                             |
  | Requirements will fluctuate during execution and may exceed these estimates |
  +-----------------------------------------------------------------------------+
 Perturbation    5 (of    6): H     1 Z at q=( 0.000, 0.000, 0.000):    258.05s
 Perturbation    6 (of    6): H     5 Z at q=( 0.000, 0.000, 0.000):    307.08s

 Phonon calculation: q-point   1 (of    8) (-0.333, 0.000,-0.333):      359.04s
 -------------------------------------------------------------------------------
 Perturbation    1 (of    6): H     1 X at q=(-0.333, 0.000,-0.333):    359.24s
  Parallel strategy changed for perturbation using 512 k-points
  Data is distributed by G-vector(1-way) and k-point(16-way) and band(1-way)
  +---------------- MEMORY AND SCRATCH DISK ESTIMATES PER PROCESS --------------+
  |                                                     Memory          Disk    |
  | Baseline code, static data and system overhead      415.0 MB         0.0 MB |
  | BLAS internal memory storage                          0.0 MB         0.0 MB |
  | Model and support data                               39.6 MB         0.0 MB |
  | DFPT phonon calculation requirements                189.2 MB         0.0 MB |
  |                                               ----------------------------- |
  | Approx. total storage required per process          643.8 MB         0.0 MB |
  |                                                                             |
  | Requirements will fluctuate during execution and may exceed these estimates |
  +-----------------------------------------------------------------------------+
 Perturbation    2 (of    6): H     5 X at q=(-0.333, 0.000,-0.333):    525.20s
 Perturbation    3 (of    6): H     1 Y at q=(-0.333, 0.000,-0.333):    638.01s
 Perturbation    4 (of    6): H     5 Y at q=(-0.333, 0.000,-0.333):    750.21s
 Perturbation    5 (of    6): H     1 Z at q=(-0.333, 0.000,-0.333):    857.13s
 Perturbation    6 (of    6): H     5 Z at q=(-0.333, 0.000,-0.333):    962.21s

 Phonon calculation: q-point   2 (of    8) (-0.333, 0.000, 0.000):     1066.35s
 -------------------------------------------------------------------------------
 Perturbation    1 (of    6): H     1 X at q=(-0.333, 0.000, 0.000):   1066.56s
  Parallel strategy changed for perturbation using 256 k-points
  Data is distributed by G-vector(1-way) and k-point(16-way) and band(1-way)
 Perturbation    2 (of    6): H     5 X at q=(-0.333, 0.000, 0.000):   1150.27s
 Perturbation    3 (of    6): H     1 Y at q=(-0.333, 0.000, 0.000):   1238.91s
 Perturbation    4 (of    6): H     5 Y at q=(-0.333, 0.000, 0.000):   1321.66s
  Parallel strategy changed for perturbation using 512 k-points
  Data is distributed by G-vector(1-way) and k-point(16-way) and band(1-way)
 Perturbation    5 (of    6): H     1 Z at q=(-0.333, 0.000, 0.000):   1467.63s
 Perturbation    6 (of    6): H     5 Z at q=(-0.333, 0.000, 0.000):   1562.72s

 Phonon calculation: q-point   3 (of    8) (-0.333, 0.333, 0.000):     1656.92s
 -------------------------------------------------------------------------------
 Perturbation    1 (of    9): H     1 X at q=(-0.333, 0.333, 0.000):   1657.14s
  Parallel strategy changed for perturbation using 256 k-points
  Data is distributed by G-vector(1-way) and k-point(16-way) and band(1-way)
 Perturbation    2 (of    9): H     2 X at q=(-0.333, 0.333, 0.000):   1739.92s
 Perturbation    3 (of    9): H     5 X at q=(-0.333, 0.333, 0.000):   1797.31s
  Parallel strategy changed for perturbation using 512 k-points
  Data is distributed by G-vector(1-way) and k-point(16-way) and band(1-way)
 Perturbation    4 (of    9): H     1 Y at q=(-0.333, 0.333, 0.000):   1951.68s
  Parallel strategy changed for perturbation using 256 k-points
  Data is distributed by G-vector(1-way) and k-point(16-way) and band(1-way)
 Perturbation    5 (of    9): H     2 Y at q=(-0.333, 0.333, 0.000):   2033.91s
 Perturbation    6 (of    9): H     5 Y at q=(-0.333, 0.333, 0.000):   2091.17s
  Parallel strategy changed for perturbation using 512 k-points
  Data is distributed by G-vector(1-way) and k-point(16-way) and band(1-way)
 Perturbation    7 (of    9): H     1 Z at q=(-0.333, 0.333, 0.000):   2249.47s
 Perturbation    8 (of    9): H     2 Z at q=(-0.333, 0.333, 0.000):   2343.49s
 Perturbation    9 (of    9): H     5 Z at q=(-0.333, 0.333, 0.000):   2439.53s

 Phonon calculation: q-point   4 (of    8) ( 0.000, 0.000,-0.333):     2544.73s
 -------------------------------------------------------------------------------
 Perturbation    1 (of    6): H     1 X at q=( 0.000, 0.000,-0.333):   2544.91s
  Parallel strategy changed for perturbation using 512 k-points
  Data is distributed by G-vector(1-way) and k-point(16-way) and band(1-way)
 Perturbation    2 (of    6): H     5 X at q=( 0.000, 0.000,-0.333):   2708.98s
 Perturbation    3 (of    6): H     1 Y at q=( 0.000, 0.000,-0.333):   2822.73s
 Perturbation    4 (of    6): H     5 Y at q=( 0.000, 0.000,-0.333):   2936.02s
 Perturbation    5 (of    6): H     1 Z at q=( 0.000, 0.000,-0.333):   3039.64s
 Perturbation    6 (of    6): H     5 Z at q=( 0.000, 0.000,-0.333):   3143.55s

 Phonon calculation: q-point   5 (of    8) ( 0.000, 0.000, 0.000):     3247.64s
 -------------------------------------------------------------------------------

 Phonon calculation: q-point   6 (of    8) ( 0.000, 0.333,-0.333):     3247.64s
 -------------------------------------------------------------------------------
 Perturbation    1 (of    9): H     1 X at q=( 0.000, 0.333,-0.333):   3247.85s
  Parallel strategy changed for perturbation using 512 k-points
  Data is distributed by G-vector(1-way) and k-point(16-way) and band(1-way)
 Perturbation    2 (of    9): H     5 X at q=( 0.000, 0.333,-0.333):   3405.14s
 Perturbation    3 (of    9): H     7 X at q=( 0.000, 0.333,-0.333):   3518.41s
 Perturbation    4 (of    9): H     1 Y at q=( 0.000, 0.333,-0.333):   3628.86s
 Perturbation    5 (of    9): H     5 Y at q=( 0.000, 0.333,-0.333):   3744.78s
 Perturbation    6 (of    9): H     7 Y at q=( 0.000, 0.333,-0.333):   3850.02s
 Perturbation    7 (of    9): H     1 Z at q=( 0.000, 0.333,-0.333):   3955.40s
 Perturbation    8 (of    9): H     5 Z at q=( 0.000, 0.333,-0.333):   4058.54s
 Perturbation    9 (of    9): H     7 Z at q=( 0.000, 0.333,-0.333):   4162.08s

 Phonon calculation: q-point   7 (of    8) ( 0.000, 0.333, 0.000):     4266.54s
 -------------------------------------------------------------------------------
 Perturbation    1 (of    6): H     1 X at q=( 0.000, 0.333, 0.000):   4266.75s
  Parallel strategy changed for perturbation using 256 k-points
  Data is distributed by G-vector(1-way) and k-point(16-way) and band(1-way)
 Perturbation    2 (of    6): H     5 X at q=( 0.000, 0.333, 0.000):   4350.80s
  Parallel strategy changed for perturbation using 512 k-points
  Data is distributed by G-vector(1-way) and k-point(16-way) and band(1-way)
 Perturbation    3 (of    6): H     1 Y at q=( 0.000, 0.333, 0.000):   4509.84s
  Parallel strategy changed for perturbation using 256 k-points
  Data is distributed by G-vector(1-way) and k-point(16-way) and band(1-way)
 Perturbation    4 (of    6): H     5 Y at q=( 0.000, 0.333, 0.000):   4597.41s
  Parallel strategy changed for perturbation using 512 k-points
  Data is distributed by G-vector(1-way) and k-point(16-way) and band(1-way)
 Perturbation    5 (of    6): H     1 Z at q=( 0.000, 0.333, 0.000):   4755.92s
 Perturbation    6 (of    6): H     5 Z at q=( 0.000, 0.333, 0.000):   4853.54s

 Phonon calculation: q-point   8 (of    8) ( 0.333,-0.333, 0.333):     4959.10s
 -------------------------------------------------------------------------------
 Perturbation    1 (of   12): H     1 X at q=( 0.333,-0.333, 0.333):   4959.32s
  Parallel strategy changed for perturbation using 512 k-points
  Data is distributed by G-vector(1-way) and k-point(16-way) and band(1-way)
 Perturbation    2 (of   12): H     2 X at q=( 0.333,-0.333, 0.333):   5115.06s
 Perturbation    3 (of   12): H     5 X at q=( 0.333,-0.333, 0.333):   5218.68s
 Perturbation    4 (of   12): H     7 X at q=( 0.333,-0.333, 0.333):   5324.08s
 Perturbation    5 (of   12): H     1 Y at q=( 0.333,-0.333, 0.333):   5427.28s
 Perturbation    6 (of   12): H     2 Y at q=( 0.333,-0.333, 0.333):   5531.79s
 Perturbation    7 (of   12): H     5 Y at q=( 0.333,-0.333, 0.333):   5635.92s
 Perturbation    8 (of   12): H     7 Y at q=( 0.333,-0.333, 0.333):   5745.50s
 Perturbation    9 (of   12): H     1 Z at q=( 0.333,-0.333, 0.333):   5847.76s
 Perturbation   10 (of   12): H     2 Z at q=( 0.333,-0.333, 0.333):   5950.35s
 Perturbation   11 (of   12): H     5 Z at q=( 0.333,-0.333, 0.333):   6056.43s
 Perturbation   12 (of   12): H     7 Z at q=( 0.333,-0.333, 0.333):   6158.04s
 
 ==============================================================================
 +                           Vibrational Frequencies                          +
 +                           -----------------------                          +
 +                                                                            +
 + Performing frequency calculation at  8 wavevectors (q-pts)                 +
 + ========================================================================== +
 +                                                                            +
 +============================================================================+
 +                       Raman Intensity Progress Report                      +
 +----------------------------------------------------------------------------+
 + RAMAN: Not a continuation; generating Raman intensities from beginning     +
 +----------------------------------------------------------------------------+
 + Mode     1: not Raman active; calculation not required                     +
 + Mode     2: not Raman active; calculation not required                     +
 + Mode     3: not Raman active; calculation not required                     +
 + Mode     4: frequency out of range; calculation not required               +
 + Mode     5: not Raman active; calculation not required                     +
 + Mode     6: not Raman active; calculation not required                     +
 + Mode     7: not Raman active; calculation not required                     +
 + Mode     8: not Raman active; calculation not required                     +
 + Mode     9: not Raman active; calculation not required                     +
 + Mode    10: performing Raman intensity calculation                         +

 Efield perturbation    1:  X                                          6282.72s

 Efield perturbation    2:  Y                                          6303.88s

 Efield perturbation    3:  Z                                          6324.75s

 Efield perturbation    1:  X                                          6358.34s

 Efield perturbation    2:  Y                                          6379.56s

 Efield perturbation    3:  Z                                          6400.05s
 + Mode number:  10 completed;                   time taken:   152.51 seconds +
 + Mode    11: performing Raman intensity calculation                         +

 Efield perturbation    1:  X                                          6444.71s

 Efield perturbation    2:  Y                                          6478.41s

 Efield perturbation    3:  Z                                          6517.89s

 Efield perturbation    1:  X                                          6564.88s

 Efield perturbation    2:  Y                                          6597.97s

 Efield perturbation    3:  Z                                          6637.69s
 + Mode number:  11 completed;                   time taken:   241.56 seconds +
 + Mode    12: not Raman active; calculation not required                     +
 + Mode    13: performing Raman intensity calculation                         +

 Efield perturbation    1:  X                                          6686.16s

 Efield perturbation    2:  Y                                          6733.74s

 Efield perturbation    3:  Z                                          6759.56s

 Efield perturbation    1:  X                                          6805.76s

 Efield perturbation    2:  Y                                          6853.76s

 Efield perturbation    3:  Z                                          6879.66s
 + Mode number:  13 completed;                   time taken:   242.14 seconds +
 + Mode    14: not Raman active; calculation not required                     +
 + Mode    15: performing Raman intensity calculation                         +

 Efield perturbation    1:  X                                          6927.97s

 Efield perturbation    2:  Y                                          6974.67s

 Efield perturbation    3:  Z                                          7001.52s

 Efield perturbation    1:  X                                          7048.75s

 Efield perturbation    2:  Y                                          7096.47s

 Efield perturbation    3:  Z                                          7121.96s
 + Mode number:  15 completed;                   time taken:   241.79 seconds +
 + Mode    16: not Raman active; calculation not required                     +
 + Mode    17: not Raman active; calculation not required                     +
 + Mode    18: not Raman active; calculation not required                     +
 + Mode    19: not Raman active; calculation not required                     +
 + Mode    20: not Raman active; calculation not required                     +
 + Mode    21: not Raman active; calculation not required                     +
 + Mode    22: performing Raman intensity calculation                         +

 Efield perturbation    1:  X                                          7168.84s

 Efield perturbation    2:  Y                                          7216.61s

 Efield perturbation    3:  Z                                          7242.37s

 Efield perturbation    1:  X                                          7288.80s

 Efield perturbation    2:  Y                                          7336.26s

 Efield perturbation    3:  Z                                          7361.44s
 + Mode number:  22 completed;                   time taken:   239.53 seconds +
 + Mode    23: not Raman active; calculation not required                     +
 + Mode    24: not Raman active; calculation not required                     +
 + Mode    25: not Raman active; calculation not required                     +
 + Mode    26: not Raman active; calculation not required                     +
 + Mode    27: not Raman active; calculation not required                     +
 + Mode    28: not Raman active; calculation not required                     +
 + Mode    29: not Raman active; calculation not required                     +
 + Mode    30: performing Raman intensity calculation                         +

 Efield perturbation    1:  X                                          7409.66s

 Efield perturbation    2:  Y                                          7444.48s

 Efield perturbation    3:  Z                                          7485.90s

 Efield perturbation    1:  X                                          7534.62s

 Efield perturbation    2:  Y                                          7568.02s

 Efield perturbation    3:  Z                                          7609.00s
 + Mode number:  30 completed;                   time taken:   247.97 seconds +
 + Mode    31: not Raman active; calculation not required                     +
 + Mode    32: not Raman active; calculation not required                     +
 + Mode    33: not Raman active; calculation not required                     +
 + Mode    34: not Raman active; calculation not required                     +
 + Mode    35: performing Raman intensity calculation                         +

 Efield perturbation    1:  X                                          7657.07s

 Efield perturbation    2:  Y                                          7705.07s

 Efield perturbation    3:  Z                                          7730.74s

 Efield perturbation    1:  X                                          7775.62s

 Efield perturbation    2:  Y                                          7822.55s

 Efield perturbation    3:  Z                                          7848.28s
 + Mode number:  35 completed;                   time taken:   239.15 seconds +
 + Mode    36: not Raman active; calculation not required                     +
 + Mode    37: not Raman active; calculation not required                     +
 + Mode    38: performing Raman intensity calculation                         +

 Efield perturbation    1:  X                                          7897.66s

 Efield perturbation    2:  Y                                          7945.78s

 Efield perturbation    3:  Z                                          7972.13s

 Efield perturbation    1:  X                                          8020.23s

 Efield perturbation    2:  Y                                          8068.57s

 Efield perturbation    3:  Z                                          8094.40s
 + Mode number:  38 completed;                   time taken:   246.31 seconds +
 + Mode    39: not Raman active; calculation not required                     +
 + Mode    40: not Raman active; calculation not required                     +
 + Mode    41: performing Raman intensity calculation                         +

 Efield perturbation    1:  X                                          8133.78s

 Efield perturbation    2:  Y                                          8154.85s

 Efield perturbation    3:  Z                                          8175.76s

 Efield perturbation    1:  X                                          8209.32s

 Efield perturbation    2:  Y                                          8230.24s

 Efield perturbation    3:  Z                                          8250.95s
 + Mode number:  41 completed;                   time taken:   152.09 seconds +
 + Mode    42: not Raman active; calculation not required                     +
 + Mode    43: not Raman active; calculation not required                     +
 + Mode    44: performing Raman intensity calculation                         +

 Efield perturbation    1:  X                                          8286.65s

 Efield perturbation    2:  Y                                          8307.87s

 Efield perturbation    3:  Z                                          8328.05s

 Efield perturbation    1:  X                                          8360.63s

 Efield perturbation    2:  Y                                          8381.44s

 Efield perturbation    3:  Z                                          8401.86s
 + Mode number:  44 completed;                   time taken:   152.46 seconds +
 + Mode    45: not Raman active; calculation not required                     +
 + Mode    46: performing Raman intensity calculation                         +

 Efield perturbation    1:  X                                          8448.76s

 Efield perturbation    2:  Y                                          8496.74s

 Efield perturbation    3:  Z                                          8522.71s

 Efield perturbation    1:  X                                          8569.21s

 Efield perturbation    2:  Y                                          8615.76s

 Efield perturbation    3:  Z                                          8640.80s
 + Mode number:  46 completed;                   time taken:   240.88 seconds +
 + Mode    47: not Raman active; calculation not required                     +
 + Mode    48: not Raman active; calculation not required                     +
 +----------------------------------------------------------------------------+
 +   E N D    O F    R A M A N    I N T E N S I T Y    C A L C U L A T I O N  +
 +         Raman intensity calculation completed in    2396.48 seconds        +
 +============================================================================+
 + -------------------------------------------------------------------------- +
 +  q-pt=    1 ( -0.333333  0.000000 -0.333333)     0.1481481481              +
 + -------------------------------------------------------------------------- +
 +  Acoustic sum rule correction <   0.026047 cm-1 applied                    +
 +     N      Frequency irrep.                                                + 
 +                (cm-1)                                                      + 
 +                                                                            +
 +     1     -59.903448   a                                                   + 
 +     2      85.006705   b                                                   + 
 +     3     170.186010   c                                                   + 
 +     4     248.395001   a                                                   + 
 +     5     275.781668   b                                                   + 
 +     6     288.977239   d                                                   + 
 +     7     340.472469   a                                                   + 
 +     8     352.488221   b                                                   + 
 +     9     400.176904   d                                                   + 
 +    10     410.678998   c                                                   + 
 +    11     429.763119   a                                                   + 
 +    12     436.873383   a                                                   + 
 +    13     441.319484   b                                                   + 
 +    14     454.954269   b                                                   + 
 +    15     456.320079   d                                                   + 
 +    16     484.038898   c                                                   + 
 +    17     571.545725   d                                                   + 
 +    18     583.018997   d                                                   + 
 +    19     612.065543   c                                                   + 
 +    20     645.340286   c                                                   + 
 +    21     667.205086   d                                                   + 
 +    22     674.715127   b                                                   + 
 +    23     717.579935   d                                                   + 
 +    24     742.635252   c                                                   + 
 +    25     764.204234   a                                                   + 
 +    26     775.249737   c                                                   + 
 +    27     776.853466   a                                                   + 
 +    28     794.608953   b                                                   + 
 +    29     840.778456   a                                                   + 
 +    30     865.432476   c                                                   + 
 +    31     914.566149   d                                                   + 
 +    32     940.727299   b                                                   + 
 +    33     979.778920   c                                                   + 
 +    34    1018.813024   d                                                   + 
 +    35    1029.492840   a                                                   + 
 +    36    1030.843286   c                                                   + 
 +    37    1066.690914   b                                                   + 
 +    38    1089.505232   d                                                   + 
 +    39    1102.254617   b                                                   + 
 +    40    1119.026882   a                                                   + 
 +    41    4394.309325   a                                                   + 
 +    42    4400.807048   b                                                   + 
 +    43    4446.098230   b                                                   + 
 +    44    4458.215355   a                                                   + 
 +    45    4482.623897   c                                                   + 
 +    46    4484.620045   d                                                   + 
 +    47    4512.300395   d                                                   + 
 +    48    4519.281141   c                                                   + 
 + .......................................................................... +
 +        Character table from group theory analysis of eigenvectors          +
 +                           Point Group =   8, D2h                           +
 + .......................................................................... +
 +  Rep  Mul |    E   m                                                       +
 +           | --------                                                       +
 + a      12 |    1   1                                                       +
 + b      12 |    1   1                                                       +
 + c      12 |    1  -1                                                       +
 + d      12 |    1  -1                                                       +
 + -------------------------------------------------------------------------- +
 +  q-pt=    2 ( -0.333333  0.000000  0.000000)     0.0740740741              +
 + -------------------------------------------------------------------------- +
 +  Acoustic sum rule correction <   0.079238 cm-1 applied                    +
 +     N      Frequency irrep.                                                + 
 +                (cm-1)                                                      + 
 +                                                                            +
 +     1     -98.312478   a                                                   + 
 +     2      81.291115   b                                                   + 
 +     3     109.492525   c                                                   + 
 +     4     203.782607   a                                                   + 
 +     5     276.847174   c                                                   + 
 +     6     356.399054   d                                                   + 
 +     7     368.992646   a                                                   + 
 +     8     396.287380   e                                                   + 
 +     9     413.600580   b                                                   + 
 +    10     430.850630   d                                                   + 
 +    11     433.091607   f                                                   + 
 +    12     451.729635   g                                                   + 
 +    13     463.262221   c                                                   + 
 +    14     498.141624   b                                                   + 
 +    15     501.207796   a                                                   + 
 +    16     507.263323   g                                                   + 
 +    17     508.665030   c                                                   + 
 +    18     538.055410   d                                                   + 
 +    19     573.307352   d                                                   + 
 +    20     601.942545   e                                                   + 
 +    21     614.714070   f                                                   + 
 +    22     642.493145   h                                                   + 
 +    23     680.627375   h                                                   + 
 +    24     712.706191   d                                                   + 
 +    25     754.739533   b                                                   + 
 +    26     781.706682   c                                                   + 
 +    27     800.080673   f                                                   + 
 +    28     837.424921   h                                                   + 
 +    29     844.289056   b                                                   + 
 +    30     869.223855   f                                                   + 
 +    31     934.201543   d                                                   + 
 +    32     957.844039   b                                                   + 
 +    33     972.945030   h                                                   + 
 +    34    1007.430606   a                                                   + 
 +    35    1034.309498   g                                                   + 
 +    36    1034.491153   e                                                   + 
 +    37    1060.367182   c                                                   + 
 +    38    1086.403993   c                                                   + 
 +    39    1111.162074   d                                                   + 
 +    40    1122.232398   a                                                   + 
 +    41    4392.234898   f                                                   + 
 +    42    4406.442591   c                                                   + 
 +    43    4437.874247   g                                                   + 
 +    44    4463.337982   f                                                   + 
 +    45    4481.840671   h                                                   + 
 +    46    4486.033648   d                                                   + 
 +    47    4508.432032   e                                                   + 
 +    48    4522.522627   h                                                   + 
 + .......................................................................... +
 +        Character table from group theory analysis of eigenvectors          +
 +                           Point Group =   8, D2h                           +
 + .......................................................................... +
 +  Rep  Mul |    E   m   m   2                                               +
 +           | ----------------                                               +
 + a       6 |    1  -1   1  -1                                               +
 + b       6 |    1  -1  -1   1                                               +
 + c       8 |    1   1   1   1                                               +
 + d       8 |    1   1  -1  -1                                               +
 + e       4 |    1  -1  -1   1                                               +
 + f       6 |    1   1   1   1                                               +
 + g       4 |    1  -1   1  -1                                               +
 + h       6 |    1   1  -1  -1                                               +
 + -------------------------------------------------------------------------- +
 +  q-pt=    3 ( -0.333333  0.333333  0.000000)     0.1481481481              +
 + -------------------------------------------------------------------------- +
 +  Acoustic sum rule correction <   0.028271 cm-1 applied                    +
 +     N      Frequency irrep.                                                + 
 +                (cm-1)                                                      + 
 +                                                                            +
 +     1     152.136080   a                                                   + 
 +     2     160.708414   b                                                   + 
 +     3     244.498906   b                                                   + 
 +     4     303.691930   c                                                   + 
 +     5     328.921482   d                                                   + 
 +     6     355.337325   b                                                   + 
 +     7     358.367827   c                                                   + 
 +     8     359.244130   a                                                   + 
 +     9     370.624509   d                                                   + 
 +    10     406.568193   a                                                   + 
 +    11     456.586038   d                                                   + 
 +    12     467.378109   c                                                   + 
 +    13     489.770171   b                                                   + 
 +    14     515.589511   d                                                   + 
 +    15     530.224504   a                                                   + 
 +    16     533.626038   c                                                   + 
 +    17     542.049336   d                                                   + 
 +    18     571.876785   c                                                   + 
 +    19     584.449438   b                                                   + 
 +    20     603.453454   c                                                   + 
 +    21     604.997245   a                                                   + 
 +    22     630.825822   d                                                   + 
 +    23     646.572685   b                                                   + 
 +    24     668.362239   c                                                   + 
 +    25     675.894295   a                                                   + 
 +    26     691.536008   d                                                   + 
 +    27     711.874660   c                                                   + 
 +    28     718.961447   d                                                   + 
 +    29     764.333196   b                                                   + 
 +    30     859.547118   a                                                   + 
 +    31     863.087951   a                                                   + 
 +    32     931.908162   d                                                   + 
 +    33    1025.773569   b                                                   + 
 +    34    1031.965032   d                                                   + 
 +    35    1043.700918   c                                                   + 
 +    36    1076.577868   c                                                   + 
 +    37    1141.128617   c                                                   + 
 +    38    1151.970572   a                                                   + 
 +    39    1168.657379   d                                                   + 
 +    40    1182.768013   b                                                   + 
 +    41    4416.660465   d                                                   + 
 +    42    4427.831842   c                                                   + 
 +    43    4450.260551   a                                                   + 
 +    44    4463.956887   c                                                   + 
 +    45    4468.359209   d                                                   + 
 +    46    4474.229308   d                                                   + 
 +    47    4485.496740   b                                                   + 
 +    48    4500.906449   c                                                   + 
 + .......................................................................... +
 +        Character table from group theory analysis of eigenvectors          +
 +                           Point Group =   8, D2h                           +
 + .......................................................................... +
 +  Rep  Mul |    E   m                                                       +
 +           | --------                                                       +
 + a      10 |    1  -1                                                       +
 + b      10 |    1  -1                                                       +
 + c      14 |    1   1                                                       +
 + d      14 |    1   1                                                       +
 + -------------------------------------------------------------------------- +
 +  q-pt=    4 (  0.000000  0.000000 -0.333333)     0.0740740741              +
 + -------------------------------------------------------------------------- +
 +  Acoustic sum rule correction <   0.097247 cm-1 applied                    +
 +     N      Frequency irrep.                                                + 
 +                (cm-1)                                                      + 
 +                                                                            +
 +     1    -300.344399   a                                                   + 
 +     2    -298.145042   b                                                   + 
 +     3    -132.209272   c                                                   + 
 +     4    -121.222877   d                                                   + 
 +     5      83.516934   e                                                   + 
 +     6     196.092062   f                                                   + 
 +     7     254.377484   d                                                   + 
 +     8     258.299263   f                                                   + 
 +     9     288.079216   b                                                   + 
 +    10     289.641701   a                                                   + 
 +    11     353.734622   b                                                   + 
 +    12     431.923388   e                                                   + 
 +    13     442.533431   d                                                   + 
 +    14     475.114127   c                                                   + 
 +    15     475.438495   f                                                   + 
 +    16     485.565801   e                                                   + 
 +    17     567.712854   c                                                   + 
 +    18     613.192003   g                                                   + 
 +    19     632.956023   h                                                   + 
 +    20     649.491210   a                                                   + 
 +    21     679.613492   g                                                   + 
 +    22     723.123900   h                                                   + 
 +    23     730.214936   e                                                   + 
 +    24     743.404116   c                                                   + 
 +    25     783.217002   d                                                   + 
 +    26     805.608533   f                                                   + 
 +    27     838.727987   g                                                   + 
 +    28     838.975371   c                                                   + 
 +    29     859.363429   h                                                   + 
 +    30     865.065162   f                                                   + 
 +    31     877.613143   e                                                   + 
 +    32     895.923478   h                                                   + 
 +    33     908.179120   d                                                   + 
 +    34     917.639222   g                                                   + 
 +    35    1050.017043   f                                                   + 
 +    36    1067.119641   a                                                   + 
 +    37    1073.861759   c                                                   + 
 +    38    1124.295710   d                                                   + 
 +    39    1155.101051   e                                                   + 
 +    40    1175.564107   b                                                   + 
 +    41    4327.100307   b                                                   + 
 +    42    4350.730024   a                                                   + 
 +    43    4427.202620   a                                                   + 
 +    44    4446.018504   b                                                   + 
 +    45    4511.411557   h                                                   + 
 +    46    4518.710161   g                                                   + 
 +    47    4556.278660   g                                                   + 
 +    48    4567.055518   h                                                   + 
 + .......................................................................... +
 +        Character table from group theory analysis of eigenvectors          +
 +                           Point Group =   8, D2h                           +
 + .......................................................................... +
 +  Rep  Mul |    E   2   m   m                                               +
 +           | ----------------                                               +
 + a       6 |    1   1   1   1                                               +
 + b       6 |    1   1   1   1                                               +
 + c       6 |    1  -1  -1   1                                               +
 + d       6 |    1  -1   1  -1                                               +
 + e       6 |    1  -1   1  -1                                               +
 + f       6 |    1  -1  -1   1                                               +
 + g       6 |    1   1  -1  -1                                               +
 + h       6 |    1   1  -1  -1                                               +
 + -------------------------------------------------------------------------- +
 +  q-pt=    5 (  0.000000  0.000000  0.000000)     0.0370370370              +
 +  q->0 along (  0.000000  0.000000  0.333333)                               +
 + -------------------------------------------------------------------------- +
 +  Acoustic sum rule correction <   8.276114 cm-1 applied                    +
 +     N      Frequency irrep.    ir intensity active            raman active + 
 +                (cm-1)         ((D/A)**2/amu)                               + 
 +                                                                            +
 +     1    -301.208138   a          0.0000000  N                       N     + 
 +     2    -296.920094   b          0.0000000  Y                       N     + 
 +     3    -192.816780   c          0.0000000  N                       N     + 
 +     4    -158.596869   d          0.0000000  N                       Y     + 
 +     5      -0.172521   b          0.0000000  N                       N     + 
 +     6      -0.140863   e          0.0000001  N                       N     + 
 +     7      -0.099605   f          0.0000000  N                       N     + 
 +     8     133.343596   g          0.0000000  N                       N     + 
 +     9     288.040427   a          0.0000000  N                       N     + 
 +    10     299.138814   h          0.0000000  N                       Y     + 
 +    11     342.736030   i          0.0000000  N                       Y     + 
 +    12     360.971293   e          0.4755823  Y                       N     + 
 +    13     438.007604   d          0.0000000  N                       Y     + 
 +    14     446.505322   j          0.0000000  N                       N     + 
 +    15     593.141429   k          0.0000000  N                       Y     + 
 +    16     605.280129   c          0.0000000  N                       N     + 
 +    17     619.964462   g          0.0000000  N                       N     + 
 +    18     633.898757   l          0.0000000  N                       N     + 
 +    19     635.490819   m          0.0000000  N                       N     + 
 +    20     639.122062   c          0.0000000  N                       N     + 
 +    21     641.582172   j          0.0000000  N                       N     + 
 +    22     672.560774   k          0.0000000  N                       Y     + 
 +    23     765.202273   n          0.0000000  N                       N     + 
 +    24     799.851035   f          0.0124218  Y                       N     + 
 +    25     822.015442   l          0.0000000  N                       N     + 
 +    26     825.444000   o          0.0000000  N                       N     + 
 +    27     826.982396   e          0.9081568  Y                       N     + 
 +    28     851.938139   m          0.0000000  N                       N     + 
 +    29     862.737462   g          0.0000000  N                       N     + 
 +    30     875.464698   i          0.0000000  N                       Y     + 
 +    31     888.671474   m          0.0000000  N                       N     + 
 +    32     890.083790   p          0.0000000  N                       N     + 
 +    33     890.676272   a          0.0000000  N                       N     + 
 +    34     924.550036   f          2.8248555  Y                       N     + 
 +    35     925.451274   k          0.0000000  N                       Y     + 
 +    36    1037.361095   e          1.9234515  Y                       N     + 
 +    37    1085.188652   l          0.0000000  N                       N     + 
 +    38    1106.818337   d          0.0000000  N                       Y     + 
 +    39    1169.178394   g          0.0000000  N                       N     + 
 +    40    1212.141280   b          0.0094674  Y                       N     + 
 +    41    4317.583380   h          0.0000000  N                       Y     + 
 +    42    4369.034681   a          0.0000000  N                       N     + 
 +    43    4411.246794   p          0.0000000  N                       N     + 
 +    44    4453.129052   h          0.0000000  N                       Y     + 
 +    45    4508.698310   n          0.0000000  N                       N     + 
 +    46    4524.647990   k          0.0000000  N                       Y     + 
 +    47    4548.585946   o          0.0000000  N                       N     + 
 +    48    4571.496518   n          0.0000000  N                       N     + 
 + .......................................................................... +
 +        Character table from group theory analysis of eigenvectors          +
 +                           Point Group =   8, D2h                           +
 + (Due to LO/TO splitting this character table may not contain some symmetry +
 +  operations of the full crystallographic point group.  Additional          +
 +  representations may be also be present corresponding to split LO modes.   +
 +  A conventional analysis can be generated by specifying an additional null +
 +  (all zero) field direction or one along any unique crystallographic axis  +
 +  in %BLOCK PHONON_GAMMA_DIRECTIONS in <seedname>.cell.)                    +
 + .......................................................................... +
 +  Rep  Mul |    E   I   2   m   2   m   2   m                               +
 +           | --------------------------------                               +
 + a Ag    4 |    1   1   1   1   1   1   1   1                               +
 + b B1u   3 |    1  -1   1  -1  -1   1  -1   1                               +
 + c B3g   3 |    1   1  -1  -1  -1  -1   1   1                               +
 + d B2g   3 |    1   1  -1  -1   1   1  -1  -1                               +
 + e B2u   4 |    1  -1  -1   1   1  -1  -1   1                               +
 + f B3u   3 |    1  -1  -1   1  -1   1   1  -1                               +
 + g B3u   4 |    1  -1  -1   1  -1   1   1  -1                               +
 + h Ag    3 |    1   1   1   1   1   1   1   1                               +
 + i B3g   2 |    1   1  -1  -1  -1  -1   1   1                               +
 + j B2g   2 |    1   1  -1  -1   1   1  -1  -1                               +
 + k B1g   4 |    1   1   1   1  -1  -1  -1  -1                               +
 + l B2u   3 |    1  -1  -1   1   1  -1  -1   1                               +
 + m Au    3 |    1  -1   1  -1   1  -1   1  -1                               +
 + n B1g   3 |    1   1   1   1  -1  -1  -1  -1                               +
 + o Au    2 |    1  -1   1  -1   1  -1   1  -1                               +
 + p B1u   2 |    1  -1   1  -1  -1   1  -1   1                               +
 + -------------------------------------------------------------------------- +
 +  q-pt=    5 (  0.000000  0.000000  0.000000)     0.0370370370              +
 +  q->0 along (  0.000000  0.333333 -0.333333)                               +
 + -------------------------------------------------------------------------- +
 +  Acoustic sum rule correction <   8.276114 cm-1 applied                    +
 +     N      Frequency irrep.    ir intensity active            raman active + 
 +                (cm-1)         ((D/A)**2/amu)                               + 
 +                                                                            +
 +     1    -301.208138   a          0.0000000  N                       N     + 
 +     2    -296.922742   b          0.0000000  Y                       N     + 
 +     3    -192.816780   a          0.0000000  N                       N     + 
 +     4    -158.596869   c          0.0000000  N                       Y     + 
 +     5      -0.172522   b          0.0000000  N                       N     + 
 +     6      -0.138383   b          0.0000001  N                       N     + 
 +     7      -0.099605   d          0.0000000  N                       N     + 
 +     8     133.343596   e          0.0000000  N                       N     + 
 +     9     288.040427   a          0.0000000  N                       N     + 
 +    10     299.138814   f          0.0000000  N                       Y     + 
 +    11     342.736030   f          0.0000000  N                       Y     + 
 +    12     367.068145   b          0.4432337  Y                       N     + 
 +    13     438.007604   c          0.0000000  N                       Y     + 
 +    14     446.505322   g          0.0000000  N                       N     + 
 +    15     593.141429   c          0.0000000  N                       Y     + 
 +    16     605.280129   a          0.0000000  N                       N     + 
 +    17     619.964462   e          0.0000000  N                       N     + 
 +    18     633.898757   h          0.0000000  N                       N     + 
 +    19     635.490819   e          0.0000000  N                       N     + 
 +    20     639.122062   a          0.0000000  N                       N     + 
 +    21     641.582172   g          0.0000000  N                       N     + 
 +    22     672.560774   c          0.0000000  N                       Y     + 
 +    23     765.202273   g          0.0000000  N                       N     + 
 +    24     799.851035   d          0.0124218  Y                       N     + 
 +    25     822.015442   h          0.0000000  N                       N     + 
 +    26     825.444000   d          0.0000000  Y                       N     + 
 +    27     832.069074   b          0.8382507  Y                       N     + 
 +    28     851.938139   e          0.0000000  N                       N     + 
 +    29     862.737462   e          0.0000000  N                       N     + 
 +    30     875.464698   f          0.0000000  N                       Y     + 
 +    31     888.671474   e          0.0000000  N                       N     + 
 +    32     890.083790   h          0.0000000  N                       N     + 
 +    33     890.676272   a          0.0000000  N                       N     + 
 +    34     924.550036   d          2.8248555  Y                       N     + 
 +    35     925.451274   c          0.0000000  N                       Y     + 
 +    36    1046.522486   b          2.0256956  Y                       N     + 
 +    37    1085.188652   h          0.0000000  N                       N     + 
 +    38    1106.818337   c          0.0000000  N                       Y     + 
 +    39    1169.178394   e          0.0000000  N                       N     + 
 +    40    1212.098743   b          0.0094779  Y                       N     + 
 +    41    4317.583380   f          0.0000000  N                       Y     + 
 +    42    4369.034681   a          0.0000000  N                       N     + 
 +    43    4411.246794   h          0.0000000  N                       N     + 
 +    44    4453.129052   f          0.0000000  N                       Y     + 
 +    45    4508.698310   g          0.0000000  N                       N     + 
 +    46    4524.647990   c          0.0000000  N                       Y     + 
 +    47    4548.585946   d          0.0000000  Y                       N     + 
 +    48    4571.496518   g          0.0000000  N                       N     + 
 + .......................................................................... +
 +        Character table from group theory analysis of eigenvectors          +
 +                           Point Group =   8, D2h                           +
 + (Due to LO/TO splitting this character table may not contain some symmetry +
 +  operations of the full crystallographic point group.  Additional          +
 +  representations may be also be present corresponding to split LO modes.   +
 +  A conventional analysis can be generated by specifying an additional null +
[...]
 +                                                                            +
 + Mode number:  28 Raman tensor       Depolarisation Ratio                   +
 +     0.0000    0.0000    0.0000      0.000000                               +
 +     0.0000    0.0000    0.0000                                             +
 +     0.0000    0.0000    0.0000                                             +
 +                                                                            +
 + Mode number:  29 Raman tensor       Depolarisation Ratio                   +
 +     0.0000    0.0000    0.0000      0.000000                               +
 +     0.0000    0.0000    0.0000                                             +
 +     0.0000    0.0000    0.0000                                             +
 +                                                                            +
 + Mode number:  30 Raman tensor       Depolarisation Ratio                   +
 +    -0.0000    0.0000    0.0000      0.750000                               +
 +     0.0000   -0.0000   -0.0927                                             +
 +     0.0000   -0.0927    0.0000                                             +
 +                                                                            +
 + Mode number:  31 Raman tensor       Depolarisation Ratio                   +
 +     0.0000    0.0000    0.0000      0.000000                               +
 +     0.0000    0.0000    0.0000                                             +
 +     0.0000    0.0000    0.0000                                             +
 +                                                                            +
 + Mode number:  32 Raman tensor       Depolarisation Ratio                   +
 +     0.0000    0.0000    0.0000      0.000000                               +
 +     0.0000    0.0000    0.0000                                             +
 +     0.0000    0.0000    0.0000                                             +
 +                                                                            +
 + Mode number:  33 Raman tensor       Depolarisation Ratio                   +
 +     0.0000    0.0000    0.0000      0.000000                               +
 +     0.0000    0.0000    0.0000                                             +
 +     0.0000    0.0000    0.0000                                             +
 +                                                                            +
 + Mode number:  34 Raman tensor       Depolarisation Ratio                   +
 +     0.0000    0.0000    0.0000      0.000000                               +
 +     0.0000    0.0000    0.0000                                             +
 +     0.0000    0.0000    0.0000                                             +
 +                                                                            +
 + Mode number:  35 Raman tensor       Depolarisation Ratio                   +
 +    -0.0000   -0.1139    0.0000      0.750000                               +
 +    -0.1139   -0.0000    0.0000                                             +
 +     0.0000    0.0000    0.0000                                             +
 +                                                                            +
 + Mode number:  36 Raman tensor       Depolarisation Ratio                   +
 +     0.0000    0.0000    0.0000      0.000000                               +
 +     0.0000    0.0000    0.0000                                             +
 +     0.0000    0.0000    0.0000                                             +
 +                                                                            +
 + Mode number:  37 Raman tensor       Depolarisation Ratio                   +
 +     0.0000    0.0000    0.0000      0.000000                               +
 +     0.0000    0.0000    0.0000                                             +
 +     0.0000    0.0000    0.0000                                             +
 +                                                                            +
 + Mode number:  38 Raman tensor       Depolarisation Ratio                   +
 +    -0.0000    0.0000   -0.1089      0.750000                               +
 +     0.0000   -0.0000    0.0000                                             +
 +    -0.1089    0.0000    0.0000                                             +
 +                                                                            +
 + Mode number:  39 Raman tensor       Depolarisation Ratio                   +
 +     0.0000    0.0000    0.0000      0.000000                               +
 +     0.0000    0.0000    0.0000                                             +
 +     0.0000    0.0000    0.0000                                             +
 +                                                                            +
 + Mode number:  40 Raman tensor       Depolarisation Ratio                   +
 +     0.0000    0.0000    0.0000      0.000000                               +
 +     0.0000    0.0000    0.0000                                             +
 +     0.0000    0.0000    0.0000                                             +
 +                                                                            +
 + Mode number:  41 Raman tensor       Depolarisation Ratio                   +
 +    -3.3644    0.0000    0.0000      0.020417                               +
 +     0.0000   -2.5132    0.0000                                             +
 +     0.0000    0.0000   -1.7232                                             +
 +                                                                            +
 + Mode number:  42 Raman tensor       Depolarisation Ratio                   +
 +     0.0000    0.0000    0.0000      0.000000                               +
 +     0.0000    0.0000    0.0000                                             +
 +     0.0000    0.0000    0.0000                                             +
 +                                                                            +
 + Mode number:  43 Raman tensor       Depolarisation Ratio                   +
 +     0.0000    0.0000    0.0000      0.000000                               +
 +     0.0000    0.0000    0.0000                                             +
 +     0.0000    0.0000    0.0000                                             +
 +                                                                            +
 + Mode number:  44 Raman tensor       Depolarisation Ratio                   +
 +    -1.0633    0.0000    0.0000      0.201484                               +
 +     0.0000   -0.0104    0.0000                                             +
 +     0.0000    0.0000   -0.3122                                             +
 +                                                                            +
 + Mode number:  45 Raman tensor       Depolarisation Ratio                   +
 +     0.0000    0.0000    0.0000      0.000000                               +
 +     0.0000    0.0000    0.0000                                             +
 +     0.0000    0.0000    0.0000                                             +
 +                                                                            +
 + Mode number:  46 Raman tensor       Depolarisation Ratio                   +
 +    -0.0000   -0.6115    0.0000      0.750000                               +
 +    -0.6115   -0.0000    0.0000                                             +
 +     0.0000    0.0000   -0.0000                                             +
 +                                                                            +
 + Mode number:  47 Raman tensor       Depolarisation Ratio                   +
 +     0.0000    0.0000    0.0000      0.000000                               +
 +     0.0000    0.0000    0.0000                                             +
 +     0.0000    0.0000    0.0000                                             +
 +                                                                            +
 + Mode number:  48 Raman tensor       Depolarisation Ratio                   +
 +     0.0000    0.0000    0.0000      0.000000                               +
 +     0.0000    0.0000    0.0000                                             +
 +     0.0000    0.0000    0.0000                                             +
 +                                                                            +
 +----------------------------------------------------------------------------+
  

 ******************** Symmetrised Forces ********************
 *                                                          *
 *               Cartesian components (eV/A)                *
 * -------------------------------------------------------- *
 *                         x            y            z      *
 *                                                          *
 * H               1     -0.00000     -0.00000      0.00000 *
 * H               2      0.00000     -0.00000      0.00000 *
 * H               3     -0.00000      0.00000      0.00000 *
 * H               4      0.00000      0.00000      0.00000 *
 * H               5     -0.00000     -0.00000     -0.00000 *
 * H               6      0.00000      0.00000     -0.00000 *
 * H               7     -0.00000     -0.00000     -0.00000 *
 * H               8      0.00000      0.00000      0.00000 *
 * H               9     -0.00000     -0.00000      0.00000 *
 * H              10      0.00000     -0.00000      0.00000 *
 * H              11     -0.00000      0.00000      0.00000 *
 * H              12      0.00000      0.00000      0.00000 *
 * H              13     -0.00000      0.00000     -0.00000 *
 * H              14      0.00000      0.00000     -0.00000 *
 * H              15     -0.00000     -0.00000     -0.00000 *
 * H              16      0.00000      0.00000     -0.00000 *
 *                                                          *
 ************************************************************

 *********** Symmetrised Stress Tensor ***********
 *                                               *
 *          Cartesian components (GPa)           *
 * --------------------------------------------- *
 *             x             y             z     *
 *                                               *
 *  x    -49.999555      0.000000      0.000000  *
 *  y      0.000000    -49.999554      0.000000  *
 *  z      0.000000      0.000000    -49.999547  *
 *                                               *
 *  Pressure:   49.9996                          *
 *                                               *
 *************************************************

 Pseudo atomic calculation performed for H 1s1

 Converged in 24 iterations to a total energy of -12.4843 eV

Charge spilling parameter for spin component 1 = 0.65%

            Orbital Populations       
     Ion    Atom   Orbital             Charge
  -------------------------------------------
      H     1      S                    0.998
      H     2      S                    1.001
      H     3      S                    1.001
      H     4      S                    0.998
      H     5      S                    1.001
      H     6      S                    1.001
      H     7      S                    1.001
      H     8      S                    1.001
      H     9      S                    0.998
      H    10      S                    1.001
      H    11      S                    1.001
      H    12      S                    0.998
      H    13      S                    1.001
      H    14      S                    1.001
      H    15      S                    1.001
      H    16      S                    1.001
  -------------------------------------------
                           Total:      16.000
  -------------------------------------------

     Atomic Populations (Mulliken)
     -----------------------------
Species          Ion     s      p      d      f     Total  Charge (e)
=====================================================================
  H               1     1.00   0.00   0.00   0.00   1.00     0.00
  H               2     1.00   0.00   0.00   0.00   1.00     0.00
  H               3     1.00   0.00   0.00   0.00   1.00     0.00
  H               4     1.00   0.00   0.00   0.00   1.00     0.00
  H               5     1.00   0.00   0.00   0.00   1.00    -0.00
  H               6     1.00   0.00   0.00   0.00   1.00    -0.00
  H               7     1.00   0.00   0.00   0.00   1.00    -0.00
  H               8     1.00   0.00   0.00   0.00   1.00    -0.00
  H               9     1.00   0.00   0.00   0.00   1.00     0.00
  H              10     1.00   0.00   0.00   0.00   1.00     0.00
  H              11     1.00   0.00   0.00   0.00   1.00     0.00
  H              12     1.00   0.00   0.00   0.00   1.00     0.00
  H              13     1.00   0.00   0.00   0.00   1.00    -0.00
  H              14     1.00   0.00   0.00   0.00   1.00    -0.00
  H              15     1.00   0.00   0.00   0.00   1.00    -0.00
  H              16     1.00   0.00   0.00   0.00   1.00    -0.00
=====================================================================

                 Bond                   Population      Length (A)
======================================================================
              H 6  -- H 7                    1.42        0.73326
              H 5  -- H 8                    1.42        0.73326
              H 14 -- H 15                   1.42        0.73326
              H 13 -- H 16                   1.42        0.73326
              H 10 -- H 11                   1.41        0.73520
              H 9  -- H 12                   1.41        0.73520
              H 2  -- H 3                    1.41        0.73520
              H 1  -- H 4                    1.41        0.73520
              H 8  -- H 15                  -0.21        1.62053
              H 7  -- H 16                  -0.21        1.62053
              H 6  -- H 13                  -0.21        1.62053
              H 5  -- H 14                  -0.21        1.62053
              H 4  -- H 10                  -0.23        1.68127
              H 3  -- H 9                   -0.23        1.68127
              H 2  -- H 12                  -0.23        1.68127
              H 1  -- H 11                  -0.23        1.68127
              H 4  -- H 13                  -0.10        1.71446
              H 3  -- H 14                  -0.10        1.71446
              H 2  -- H 15                  -0.10        1.71446
              H 1  -- H 16                  -0.10        1.71446
              H 4  -- H 15                  -0.10        1.71446
              H 3  -- H 16                  -0.10        1.71446
              H 2  -- H 13                  -0.10        1.71446
              H 1  -- H 14                  -0.10        1.71446
              H 8  -- H 11                  -0.10        1.71446
              H 7  -- H 12                  -0.10        1.71446
              H 6  -- H 9                   -0.10        1.71446
              H 5  -- H 10                  -0.10        1.71446
              H 8  -- H 9                   -0.10        1.71446
              H 7  -- H 10                  -0.10        1.71446
              H 6  -- H 11                  -0.10        1.71446
              H 5  -- H 12                  -0.10        1.71446
              H 4  -- H 11                  -0.26        1.78750
              H 3  -- H 12                  -0.26        1.78750
              H 2  -- H 9                   -0.26        1.78750
              H 1  -- H 10                  -0.26        1.78750
              H 4  -- H 6                   -0.11        1.84521
              H 3  -- H 5                   -0.11        1.84521
              H 2  -- H 8                   -0.11        1.84521
              H 1  -- H 7                   -0.11        1.84521
              H 4  -- H 8                   -0.11        1.84521
              H 3  -- H 7                   -0.11        1.84521
              H 2  -- H 6                   -0.11        1.84521
              H 1  -- H 5                   -0.11        1.84521
              H 10 -- H 16                  -0.11        1.84521
              H 9  -- H 15                  -0.11        1.84521
              H 12 -- H 14                  -0.11        1.84521
              H 11 -- H 13                  -0.11        1.84521
              H 10 -- H 14                  -0.11        1.84521
              H 9  -- H 13                  -0.11        1.84521
              H 12 -- H 16                  -0.11        1.84521
              H 11 -- H 15                  -0.11        1.84521
              H 4  -- H 7                   -0.11        1.92519
              H 3  -- H 8                   -0.11        1.92519
              H 2  -- H 5                   -0.11        1.92519
              H 1  -- H 6                   -0.11        1.92519
              H 4  -- H 5                   -0.11        1.92519
              H 3  -- H 6                   -0.11        1.92519
              H 2  -- H 7                   -0.11        1.92519
              H 1  -- H 8                   -0.11        1.92519
              H 10 -- H 13                  -0.11        1.92519
              H 9  -- H 14                  -0.11        1.92519
              H 12 -- H 15                  -0.11        1.92519
              H 11 -- H 16                  -0.11        1.92519
              H 10 -- H 15                  -0.11        1.92519
              H 9  -- H 16                  -0.11        1.92519
              H 12 -- H 13                  -0.11        1.92519
              H 11 -- H 14                  -0.11        1.92519
              H 4  -- H 16                  -0.12        1.95834
              H 3  -- H 15                  -0.12        1.95834
              H 2  -- H 14                  -0.12        1.95834
              H 1  -- H 13                  -0.12        1.95834
              H 4  -- H 14                  -0.12        1.95834
              H 3  -- H 13                  -0.12        1.95834
              H 2  -- H 16                  -0.12        1.95834
              H 1  -- H 15                  -0.12        1.95834
              H 8  -- H 10                  -0.12        1.95834
              H 7  -- H 9                   -0.12        1.95834
              H 6  -- H 12                  -0.12        1.95834
              H 5  -- H 11                  -0.12        1.95834
              H 8  -- H 12                  -0.12        1.95834
              H 7  -- H 11                  -0.12        1.95834
              H 6  -- H 10                  -0.12        1.95834
              H 5  -- H 9                   -0.12        1.95834
              H 8  -- H 14                  -0.28        2.05507
              H 7  -- H 13                  -0.28        2.05507
              H 6  -- H 16                  -0.28        2.05507
              H 5  -- H 15                  -0.28        2.05507
              H 14 -- H 16                   0.02        2.87467
              H 13 -- H 15                   0.02        2.87467
              H 6  -- H 8                    0.02        2.87467
              H 5  -- H 7                    0.02        2.87467
======================================================================


Writing analysis data to Hibam.castep_bin

Writing model to Hibam.check
 
 A BibTeX formatted list of references used in this run has been written to 
 Hibam.bib
 
Initialisation time =      1.68 s
Calculation time    =   8666.67 s
Finalisation time   =      0.67 s
Total time          =   8669.02 s
Peak Memory Use     = 661016 kB
  
Overall parallel efficiency rating: Very good (89%)                             
  
Data was distributed by:-
k-point (16-way); efficiency rating: Excellent (91%)                            
