 +-------------------------------------------------+
 |                                                 |
 |      CCC   AA    SSS  TTTTT  EEEEE  PPPP        |
 |     C     A  A  S       T    E      P   P       |
 |     C     AAAA   SS     T    EEE    PPPP        |
 |     C     A  A     S    T    E      P           |
 |      CCC  A  A  SSS     T    EEEEE  P           |
 |                                                 |
 +-------------------------------------------------+
 |                                                 |
 | Welcome to Academic Release CASTEP version 18.1 |          
 | Ab Initio Total Energy Program                  |
 |                                                 |
 | Authors:                                        |
 | M. Segall, M. Probert, C. Pickard, P. Hasnip,   |
 | S. Clark, K. Refson, J. R. Yates, M. Payne      |
 |                                                 |
 | Contributors:                                   |
 | P. Lindan, P. Haynes, J. White, V. Milman,      |
 | N. Govind, M. Gibson, P. Tulip, V. Cocula,      |
 | B. Montanari, D. Quigley, M. Glover,            |
 | L. Bernasconi, A. Perlov, M. Plummer,           |
 | E. McNellis, J. Meyer, J. Gale, D. Jochym       |
 | J. Aarons, B. Walker, R. Gillen, D. Jones       |
 | T. Green, I. J. Bush, C. J. Armstrong,          |
 | E. J. Higgins, E. L. Brown, M. S. McFly,        |
 | J. Wilkins, B-C. Shih, P. J. P. Byrne           |
 |                                                 |
 | Copyright (c) 2000 - 2017                       |
 |                                                 |
 |     Distributed under the terms of an           |
 |     Agreement between the United Kingdom        |
 |     Car-Parrinello (UKCP) Consortium,           |
 |     Daresbury Laboratory and Accelrys, Inc.     |
 |                                                 |
 | Please cite                                     |
 |                                                 |
 |     "First principles methods using CASTEP"     |
 |                                                 |
 |         Zeitschrift fuer Kristallographie       |
 |           220(5-6) pp. 567-570 (2005)           |
 |                                                 |
 | S. J. Clark, M. D. Segall, C. J. Pickard,       |
 | P. J. Hasnip, M. J. Probert, K. Refson,         |
 | M. C. Payne                                     |
 |                                                 |
 |       in all publications arising from          |
 |              your use of CASTEP                 |
 |                                                 |
 +-------------------------------------------------+


 Compiled for linux_x86_64_gfortran4.8 on Thu, 19 Jul 2018 15:42:32 +0100
 from code version 70483bd0ad64+  Sun, 10 Dec 2017 12:18:29 +0000
 Compiler: GNU Fortran 4.8.5; Optimisation: fast
 MATHLIBS: Intel MKL(2018.0.0) (LAPACK version 3.7.0)
 FFT Lib : mkl
 Fundamental constants values: CODATA 2014

 Run started: Mon, 10 Aug 2020 12:14:45 +0100
 +-------------------------------------------------+
 |                                                 |
 |  D D D D    F F F F F  P P P P     T T T T T    |
 |  D       D  F          P       P       T        |
 |  D       D  F F F F    P P P P         T        |
 |  D       D  F          P               T        |
 |  D D D D    F          P               T        |
 |                                                 |
 +-------------------------------------------------+
 |                                                 |
 | Welcome to Castep Linear Response (DFPT)        |
 |                                                 |
 | Copyright (c) 2006 - 2017                       |
 |                                                 |
 | Please cite the following publications in all   |
 | work arising from your use of CASTEP LR.        |
 |                                                 |
 | K. Refson, S. J. Clark and P. R. Tulip          |
 | Variational density functional perturbation     |
 | theory for dielectrics and lattice dynamics     |
 | Phys. Rev. B 73(15), 155114 (2006)              |
 +-------------------------------------------------+


 Atomic calculation performed for H: 1s1

 Converged in 41 iterations to an ae energy of -12.488 eV

   ============================================================                
   | Pseudopotential Report - Date of generation 10-08-2020   |                
   ------------------------------------------------------------                
   | Element: H Ionic charge:  1.00 Level of theory: PBE      |                
   | Atomic Solver: Koelling-Harmon                           |                
   |                                                          |                
   |               Reference Electronic Structure             |                
   |         Orbital         Occupation         Energy        |                
   |            1s              1.000           -0.239        |                
   |                                                          |                
   |                 Pseudopotential Definition               |                
   |        Beta     l      e      Rc     scheme   norm       |                
   |         loc     0   -0.239   0.702     qc      1         |                
   |                                                          |                
   | No charge augmentation                                   |                
   | No partial core correction                               |                
   ------------------------------------------------------------                
   | "0|0.7|2|6|8|10L(qc=10)"                                 |                
   ------------------------------------------------------------                
   |      Author: Chris J. Pickard, Cambridge University      |                
   ============================================================                

 Pseudo atomic calculation performed for H 1s1

 Converged in 24 iterations to a total energy of -12.4843 eV

 Calculation parallelised over 4 processes.
 Data is distributed by k-point(4-way)

 ************************************ Title ************************************
 

 ***************************** General Parameters ******************************
  
 output verbosity                               : normal  (1)
 write checkpoint data to                       : Pbcn.check
 type of calculation                            : phonon calculation
 stress calculation                             : on
 density difference calculation                 : off
 electron localisation func (ELF) calculation   : off
 Hirshfeld analysis                             : off
 unlimited duration calculation
 timing information                             : on
 memory usage estimate                          : on
 write extra output files                       : on
 write final potential to formatted file        : off
 write final density to formatted file          : off
 write structure in CELL formatted file         : on
 write BibTeX reference list                    : on
 write OTFG pseudopotential files               : on
 write electrostatic potential file             : on
 write bands file                               : on
 checkpoint writing                             : both castep_bin and check files
  
 output         length unit                     : A
 output           mass unit                     : amu
 output           time unit                     : ps
 output         charge unit                     : e
 output           spin unit                     : hbar/2
 output         energy unit                     : eV
 output          force unit                     : eV/A
 output       velocity unit                     : A/ps
 output       pressure unit                     : GPa
 output     inv_length unit                     : 1/A
 output      frequency unit                     : cm-1
 output force constant unit                     : eV/A**2
 output         volume unit                     : A**3
 output   IR intensity unit                     : (D/A)**2/amu
 output         dipole unit                     : D
 output         efield unit                     : eV/A/e
 output        entropy unit                     : J/mol/K
  
 wavefunctions paging                           : none
 random number generator seed                   : randomised (121445143)
 data distribution                              : optimal for this architecture
 optimization strategy                          : maximize speed(+++)

 *********************** Exchange-Correlation Parameters ***********************
  
 using functional                               : Perdew Burke Ernzerhof
 relativistic treatment                         : Koelling-Harmon
 DFT+D: Semi-empirical dispersion correction    : off

 ************************* Pseudopotential Parameters **************************
  
 pseudopotential representation                 : reciprocal space
 <beta|phi> representation                      : reciprocal space
 spin-orbit coupling                            : off

 **************************** Basis Set Parameters *****************************
  
 plane wave basis set cut-off                   :  1200.0000   eV
 size of standard grid                          :     2.0000
 size of   fine   gmax                          :    35.4943   1/A
 finite basis set correction                    : automatic
 number of sample energies                      :          3
           sample  spacing                      :     5.0000   eV

 **************************** Electronic Parameters ****************************
  
 number of  electrons                           :  48.00    
 net charge of system                           :  0.000    
 treating system as non-spin-polarized
 number of bands                                :         24

 ********************* Electronic Minimization Parameters **********************
  
 Method: Treating system as non-metallic,
         and number of  SD  steps               :          1
         and number of  CG  steps               :          4
  
 total energy / atom convergence tol.           : 0.1000E-10   eV
 eigen-energy convergence tolerance             : 0.2000E-10   eV
 max force / atom convergence tol.              : ignored
 convergence tolerance window                   :          3   cycles
 max. number of SCF cycles                      :        100
 periodic dipole correction                     : NONE

 ************************** Density Mixing Parameters **************************
  
 density-mixing scheme                          : Broyden
 max. length of mixing history                  :         20
 charge density mixing amplitude                : 0.8000    
 cut-off energy for mixing                      :  1200.       eV

 *********************** Population Analysis Parameters ************************
  
 Population analysis with cutoff                :  3.000       A
 Population analysis output                     : summary and pdos components

 ****************************** Phonon Parameters ******************************
  
 phonon calculation method                      : linear response
 phonon convergence tolerance                   : 0.1000E-04   eV/A**2
 max. number of phonon cycles                   :         50
 max. number of phonon CG steps                 :          0
 convergence tolerance window                   :          2   cycles
 DFPT solver method                             : AllBands (Gonze variational method)
 preconditioning scheme                         : TPA     
 fine phonon calculation method                 : interpolation
 non-periodic force constant method             : Weighted cumulant sum
 LO/TO splitting term                           : included
 acoustic phonon sum rule                       : correct D(q) in recip-space
 Born effective charges                         : calculated
 Born charge sum rule                           : explicitly enforced
 Raman intensities                              : calculated
 Raman frequency window start                   :  0.000       eV
 Raman frequency window stop                    :  1.000       eV
 Raman tensor calculated using                  : finite displacement method
 phonon k-points                                : use reduced set
 phonon DOS                                     : not calculated
 backups results every                          :      14400   seconds
 band convergence tolerance                     : 0.1000E-08   eV

 *******************************************************************************
  

                           -------------------------------
                                      Unit Cell
                           -------------------------------
        Real Lattice(A)                      Reciprocal Lattice(1/A)
     3.6348900    -0.0000000     0.0000000        1.728576469   0.000000000   0.000000000
    -0.0000000     6.3143109     0.0000000        0.000000000   0.995070632   0.000000000
     0.0000000     0.0000000     6.2273524        0.000000000   0.000000000   1.008965761

                       Lattice parameters(A)       Cell Angles
                    a =      3.634890          alpha =   90.000000
                    b =      6.314311          beta  =   90.000000
                    c =      6.227352          gamma =   90.000000

                       Current cell volume =           142.929104       A**3
                                   density =             0.338497   AMU/A**3
                                           =             0.562088     g/cm^3

                           -------------------------------
                                     Cell Contents
                           -------------------------------
                         Total number of ions in cell =   48
                      Total number of species in cell =    1
                        Max number of any one species =   48

            xxxxxxxxxxxxxxxxxxxxxxxxxxxxxxxxxxxxxxxxxxxxxxxxxxxxxxxxxxxx
            x  Element    Atom        Fractional coordinates of atoms  x
            x            Number           u          v          w      x
            x----------------------------------------------------------x
            x  H            1         0.416204   0.126394   0.027201   x 
            x  H            2         0.565398   0.202635   0.052065   x 
            x  H            3         0.561558   0.545649   0.004579   x 
            x  H            4         0.102412   0.168973   0.244149   x 
            x  H            5         0.296413   0.365660   0.236056   x 
            x  H            6         0.194550   0.465992   0.258928   x 
            x  H            7         0.194550   0.534008   0.758928   x 
            x  H            8         0.296413   0.634340   0.736056   x 
            x  H            9         0.102412   0.831027   0.744149   x 
            x  H           10         0.561558   0.454351   0.504579   x 
            x  H           11         0.565398   0.797365   0.552065   x 
            x  H           12         0.416204   0.873606   0.527201   x 
            x  H           13         0.305450   0.965992   0.258928   x 
            x  H           14         0.203587   0.865660   0.236056   x 
            x  H           15         0.397588   0.668973   0.244149   x 
            x  H           16        -0.061558   0.045649   0.004579   x 
            x  H           17        -0.065398   0.702635   0.052065   x 
            x  H           18         0.083796   0.626394   0.027201   x 
            x  H           19         0.694550   0.965992   0.241072   x 
            x  H           20         0.796413   0.865660   0.263944   x 
            x  H           21         0.602412   0.668973   0.255851   x 
            x  H           22         1.061558   0.045649   0.495421   x 
            x  H           23         1.065398   0.702635   0.447935   x 
            x  H           24         0.916204   0.626394   0.472799   x 
            x  H           25         0.805450   0.534008   0.741072   x 
            x  H           26         0.703587   0.634340   0.763944   x 
            x  H           27         0.897588   0.831027   0.755851   x 
            x  H           28         0.438442   0.454351  -0.004579   x 
            x  H           29         0.434602   0.797365   0.947935   x 
            x  H           30         0.583796   0.873606   0.972799   x 
            x  H           31         0.805450   0.465992   0.241072   x 
            x  H           32         0.703587   0.365660   0.263944   x 
            x  H           33         0.897588   0.168973   0.255851   x 
            x  H           34         0.438442   0.545649   0.495421   x 
            x  H           35         0.434602   0.202635   0.447935   x 
            x  H           36         0.583796   0.126394   0.472799   x 
            x  H           37         0.694550   0.034008   0.741072   x 
            x  H           38         0.796413   0.134340   0.763944   x 
            x  H           39         0.602412   0.331027   0.755851   x 
            x  H           40         0.061558  -0.045649  -0.004579   x 
            x  H           41         1.065398   0.297365   0.947935   x 
            x  H           42         0.916204   0.373606   0.972799   x 
            x  H           43         0.305450   0.034008   0.758928   x 
            x  H           44         0.203587   0.134340   0.736056   x 
            x  H           45         0.397588   0.331027   0.744149   x 
            x  H           46         0.938442  -0.045649   0.504579   x 
            x  H           47        -0.065398   0.297365   0.552065   x 
            x  H           48         0.083796   0.373606   0.527201   x 
            xxxxxxxxxxxxxxxxxxxxxxxxxxxxxxxxxxxxxxxxxxxxxxxxxxxxxxxxxxxx


                         No user defined ionic velocities

                           -------------------------------
                                   Details of Species
                           -------------------------------

                               Mass of species in AMU
                                    H    1.0078250

                          Electric Quadrupole Moment (Barn)
                                    H    0.0028600 Isotope  2

                          Files used for pseudopotentials:
                                    H 0|0.7|2|6|8|10L(qc=10)

                           -------------------------------
                              k-Points For BZ Sampling
                           -------------------------------
                       MP grid size for SCF calculation is  7  7  7
                            with an offset of   0.000  0.000  0.000
                       Number of kpoints used =            64

                           -------------------------------
                               Symmetry and Constraints
                           -------------------------------

                      Maximum deviation from symmetry = 0.248895E-13     ANG

                      Number of symmetry operations   =           8
                      Number of ionic constraints     =           3
                      Point group of crystal =     8: D2h, mmm, 2/m 2/m 2/m
                      Space group of crystal =    60: Pbcn, -P 2n 2ab

             Set iprint > 1 for details on symmetry rotations/translations

                         Centre of mass is constrained
             Set iprint > 1 for details of linear ionic constraints

                         Number of cell constraints= 3
                         Cell constraints are:  1 2 3 0 0 0

                         External pressure/stress (GPa)
                         50.00000   0.00000   0.00000
                                   50.00000   0.00000
                                             50.00000
  
+---------------- MEMORY AND SCRATCH DISK ESTIMATES PER PROCESS --------------+
|                                                     Memory          Disk    |
| Baseline code, static data and system overhead      383.0 MB         0.0 MB |
| BLAS internal memory storage                          0.0 MB         0.0 MB |
| Model and support data                              169.5 MB         0.0 MB |
| Electronic energy minimisation requirements         230.4 MB         0.0 MB |
| Force calculation requirements                       26.7 MB         0.0 MB |
| Stress calculation requirements                      33.8 MB         0.0 MB |
|                                               ----------------------------- |
| Approx. total storage required per process          782.9 MB         0.0 MB |
|                                                                             |
| Requirements will fluctuate during execution and may exceed these estimates |
+-----------------------------------------------------------------------------+
Calculating finite basis set correction with  3 cut-off energies.
Calculating total energy with cut-off of 1190.000 eV.
------------------------------------------------------------------------ <-- SCF
SCF loop      Energy                           Energy gain       Timer   <-- SCF
                                               per atom          (sec)   <-- SCF
------------------------------------------------------------------------ <-- SCF
Initial   1.24435682E+003                                          5.70  <-- SCF
      1  -5.95833315E+002                    3.83372944E+001      18.84  <-- SCF
      2  -7.41479682E+002                    3.03429932E+000      27.32  <-- SCF
      3  -7.45193523E+002                    7.73716752E-002      34.63  <-- SCF
      4  -7.40230191E+002                   -1.03402742E-001      46.56  <-- SCF
      5  -7.40059301E+002                   -3.56021627E-003      58.48  <-- SCF
      6  -7.40066524E+002                    1.50473044E-004      70.36  <-- SCF
      7  -7.40067306E+002                    1.63024488E-005      82.27  <-- SCF
      8  -7.40067310E+002                    7.34877026E-008      94.12  <-- SCF
      9  -7.40067310E+002                    4.52438775E-009     105.99  <-- SCF
     10  -7.40067310E+002                    3.21061271E-010     117.24  <-- SCF
     11  -7.40067310E+002                    1.33531326E-012     125.66  <-- SCF
     12  -7.40067310E+002                    7.81450295E-013     134.05  <-- SCF
------------------------------------------------------------------------ <-- SCF
 
Final energy =  -740.0673097870     eV
(energy not corrected for finite basis set)
 
Calculating total energy with cut-off of 1195.000 eV.
------------------------------------------------------------------------ <-- SCF
SCF loop      Energy                           Energy gain       Timer   <-- SCF
                                               per atom          (sec)   <-- SCF
------------------------------------------------------------------------ <-- SCF
Initial  -7.40067310E+002                                        138.27  <-- SCF
      1  -7.40070649E+002                    6.95608848E-005     148.51  <-- SCF
      2  -7.40070649E+002                    9.52442899E-011     161.22  <-- SCF
      3  -7.40070650E+002                    3.29232079E-008     174.14  <-- SCF
      4  -7.40070650E+002                    1.80225801E-009     187.09  <-- SCF
      5  -7.40070650E+002                    1.17974826E-010     195.70  <-- SCF
      6  -7.40070650E+002                    6.38452948E-012     204.75  <-- SCF
      7  -7.40070650E+002                    4.41076327E-013     213.76  <-- SCF
------------------------------------------------------------------------ <-- SCF
 
Final energy =  -740.0706503867     eV
(energy not corrected for finite basis set)
 
Calculating total energy with cut-off of 1200.000 eV.
------------------------------------------------------------------------ <-- SCF
SCF loop      Energy                           Energy gain       Timer   <-- SCF
                                               per atom          (sec)   <-- SCF
------------------------------------------------------------------------ <-- SCF
Initial  -7.40070650E+002                                        217.95  <-- SCF
      1  -7.40073972E+002                    6.92002773E-005     228.84  <-- SCF
      2  -7.40073972E+002                    9.35444341E-011     241.89  <-- SCF
      3  -7.40073974E+002                    3.36701777E-008     255.00  <-- SCF
      4  -7.40073974E+002                    1.79726922E-009     268.01  <-- SCF
      5  -7.40073974E+002                    1.17455202E-010     277.26  <-- SCF
      6  -7.40073974E+002                    7.18813429E-012     286.92  <-- SCF
      7  -7.40073974E+002                    9.54658351E-013     296.15  <-- SCF
------------------------------------------------------------------------ <-- SCF
 
Final energy =  -740.0739737129     eV
(energy not corrected for finite basis set)
 
 For future reference: finite basis dEtot/dlog(Ecut) =      -0.794412eV
 Total energy corrected for finite basis set =    -740.073939 eV

 Efield perturbation    1:  X                                           324.34s
  +---------------- MEMORY AND SCRATCH DISK ESTIMATES PER PROCESS --------------+
  |                                                     Memory          Disk    |
  | Baseline code, static data and system overhead      383.0 MB         0.0 MB |
  | BLAS internal memory storage                          0.0 MB         0.0 MB |
  | Model and support data                              170.3 MB         0.0 MB |
  | DFPT E-field response requirements                  584.0 MB         0.0 MB |
  |                                               ----------------------------- |
  | Approx. total storage required per process         1137.3 MB         0.0 MB |
  |                                                                             |
  | Requirements will fluctuate during execution and may exceed these estimates |
  +-----------------------------------------------------------------------------+

 Efield perturbation    2:  Y                                           654.77s

 Efield perturbation    3:  Z                                           988.26s
 Perturbation    1 (of   18): H     1 X at q=( 0.000, 0.000, 0.000):   1321.21s
  Parallel strategy changed for perturbation using 172 k-points
  Data is distributed by G-vector(1-way) and k-point(4-way) and band(1-way)
  +---------------- MEMORY AND SCRATCH DISK ESTIMATES PER PROCESS --------------+
  |                                                     Memory          Disk    |
  | Baseline code, static data and system overhead      383.0 MB         0.0 MB |
  | BLAS internal memory storage                          0.0 MB         0.0 MB |
  | Model and support data                              170.3 MB         0.0 MB |
  | DFPT phonon calculation requirements               2159.6 MB         0.0 MB |
  |                                               ----------------------------- |
  | Approx. total storage required per process         2712.9 MB         0.0 MB |
  |                                                                             |
  | Requirements will fluctuate during execution and may exceed these estimates |
  +-----------------------------------------------------------------------------+
 Perturbation    2 (of   18): H     2 X at q=( 0.000, 0.000, 0.000):   1825.31s
 Perturbation    3 (of   18): H     3 X at q=( 0.000, 0.000, 0.000):   2297.88s
 Perturbation    4 (of   18): H     4 X at q=( 0.000, 0.000, 0.000):   2772.08s
 Perturbation    5 (of   18): H     5 X at q=( 0.000, 0.000, 0.000):   3273.46s
 Perturbation    6 (of   18): H     6 X at q=( 0.000, 0.000, 0.000):   3739.74s
 Perturbation    7 (of   18): H     1 Y at q=( 0.000, 0.000, 0.000):   4209.16s
 Perturbation    8 (of   18): H     2 Y at q=( 0.000, 0.000, 0.000):   4720.84s
 Perturbation    9 (of   18): H     3 Y at q=( 0.000, 0.000, 0.000):   5259.01s
 Perturbation   10 (of   18): H     4 Y at q=( 0.000, 0.000, 0.000):   5748.54s
 Perturbation   11 (of   18): H     5 Y at q=( 0.000, 0.000, 0.000):   6309.78s
 Perturbation   12 (of   18): H     6 Y at q=( 0.000, 0.000, 0.000):   7004.90s
 Perturbation   13 (of   18): H     1 Z at q=( 0.000, 0.000, 0.000):   7711.72s
 Perturbation   14 (of   18): H     2 Z at q=( 0.000, 0.000, 0.000):   8450.94s
 Perturbation   15 (of   18): H     3 Z at q=( 0.000, 0.000, 0.000):   9509.68s
 Perturbation   16 (of   18): H     4 Z at q=( 0.000, 0.000, 0.000):  10573.99s
 Perturbation   17 (of   18): H     5 Z at q=( 0.000, 0.000, 0.000):  11561.62s
 Perturbation   18 (of   18): H     6 Z at q=( 0.000, 0.000, 0.000):  12595.96s

 Phonon calculation: q-point   1 (of    1) ( 0.000, 0.000, 0.000):    13615.83s
 -------------------------------------------------------------------------------
 
 ==============================================================================
 +                           Vibrational Frequencies                          +
 +                           -----------------------                          +
 +                                                                            +
 + Performing frequency calculation at  1 wavevector  (q-pt )                 +
 + ========================================================================== +
 +                                                                            +
 +============================================================================+
 +                       Raman Intensity Progress Report                      +
 +----------------------------------------------------------------------------+
 + RAMAN: Not a continuation; generating Raman intensities from beginning     +
 +----------------------------------------------------------------------------+
 + Mode     1: not Raman active; calculation not required                     +
 + Mode     2: not Raman active; calculation not required                     +
 + Mode     3: not Raman active; calculation not required                     +
 + Mode     4: frequency out of range; calculation not required               +
 + Mode     5: not Raman active; calculation not required                     +
 + Mode     6: not Raman active; calculation not required                     +
 + Mode     7: not Raman active; calculation not required                     +
 + Mode     8: performing Raman intensity calculation                         +

 Efield perturbation    1:  X                                         14023.21s

 Efield perturbation    2:  Y                                         15016.51s

 Efield perturbation    3:  Z                                         16293.49s

 Efield perturbation    1:  X                                         17566.86s

 Efield perturbation    2:  Y                                         18575.01s

 Efield perturbation    3:  Z                                         19669.66s
 + Mode number:   8 completed;                   time taken:  6647.43 seconds +
 + Mode     9: not Raman active; calculation not required                     +
 + Mode    10: performing Raman intensity calculation                         +

 Efield perturbation    1:  X                                         20592.69s

 Efield perturbation    2:  Y                                         21307.16s

 Efield perturbation    3:  Z                                         21985.58s

 Efield perturbation    1:  X                                         22630.53s

 Efield perturbation    2:  Y                                         23196.60s

 Efield perturbation    3:  Z                                         23943.22s
 + Mode number:  10 completed;                   time taken:  4396.52 seconds +
 + Mode    11: performing Raman intensity calculation                         +

 Efield perturbation    1:  X                                         25164.79s

 Efield perturbation    2:  Y                                         26538.41s

 Efield perturbation    3:  Z                                         27300.60s

 Efield perturbation    1:  X                                         28444.77s

 Efield perturbation    2:  Y                                         29715.02s

 Efield perturbation    3:  Z                                         30419.32s
 + Mode number:  11 completed;                   time taken:  6254.12 seconds +
 + Checkpointing.....                                                         +

Writing analysis data to Pbcn.castep_bin

Writing model to Pbcn.check
 + Mode    12: performing Raman intensity calculation                         +

 Efield perturbation    1:  X                                         31239.95s

 Efield perturbation    2:  Y                                         32198.46s

 Efield perturbation    3:  Z                                         33340.88s

 Efield perturbation    1:  X                                         34445.50s

 Efield perturbation    2:  Y                                         35344.71s

 Efield perturbation    3:  Z                                         36479.38s
 + Mode number:  12 completed;                   time taken:  6175.45 seconds +
 + Mode    13: performing Raman intensity calculation                         +

 Efield perturbation    1:  X                                         37667.05s

 Efield perturbation    2:  Y                                         39092.96s

 Efield perturbation    3:  Z                                         39659.75s

 Efield perturbation    1:  X                                         40684.99s

 Efield perturbation    2:  Y                                         42111.81s

 Efield perturbation    3:  Z                                         42789.94s
 + Mode number:  13 completed;                   time taken:  6357.88 seconds +
 + Mode    14: not Raman active; calculation not required                     +
 + Mode    15: not Raman active; calculation not required                     +
 + Mode    16: performing Raman intensity calculation                         +

 Efield perturbation    1:  X                                         44016.79s

 Efield perturbation    2:  Y                                         45429.64s

 Efield perturbation    3:  Z                                         46103.69s

 Efield perturbation    1:  X                                         47171.56s

 Efield perturbation    2:  Y                                         48377.43s

 Efield perturbation    3:  Z                                         48811.86s
 + Mode number:  16 completed;                   time taken:  5735.87 seconds +
 + Checkpointing.....                                                         +

Writing analysis data to Pbcn.castep_bin

Writing model to Pbcn.check
 + Mode    17: not Raman active; calculation not required                     +
 + Mode    18: not Raman active; calculation not required                     +
 + Mode    19: performing Raman intensity calculation                         +

 Efield perturbation    1:  X                                         49427.66s

 Efield perturbation    2:  Y                                         50155.53s

 Efield perturbation    3:  Z                                         50889.44s

 Efield perturbation    1:  X                                         51928.44s

 Efield perturbation    2:  Y                                         52659.70s

 Efield perturbation    3:  Z                                         53293.79s
 + Mode number:  19 completed;                   time taken:  4684.97 seconds +
 + Mode    20: not Raman active; calculation not required                     +
 + Mode    21: not Raman active; calculation not required                     +
 + Mode    22: performing Raman intensity calculation                         +

 Efield perturbation    1:  X                                         54404.27s

 Efield perturbation    2:  Y                                         55338.01s

 Efield perturbation    3:  Z                                         56438.39s

 Efield perturbation    1:  X                                         57526.52s

 Efield perturbation    2:  Y                                         58254.98s

 Efield perturbation    3:  Z                                         58962.30s
 + Mode number:  22 completed;                   time taken:  5629.77 seconds +
 + Mode    23: not Raman active; calculation not required                     +
 + Mode    24: performing Raman intensity calculation                         +

 Efield perturbation    1:  X                                         59814.59s

 Efield perturbation    2:  Y                                         60421.08s

 Efield perturbation    3:  Z                                         61088.67s

 Efield perturbation    1:  X                                         61961.57s

 Efield perturbation    2:  Y                                         62597.31s

 Efield perturbation    3:  Z                                         63228.52s
 + Mode number:  24 completed;                   time taken:  4323.41 seconds +
 + Checkpointing.....                                                         +

Writing analysis data to Pbcn.castep_bin

Writing model to Pbcn.check
 + Mode    25: performing Raman intensity calculation                         +

 Efield perturbation    1:  X                                         64320.85s

 Efield perturbation    2:  Y                                         65530.52s

 Efield perturbation    3:  Z                                         66155.97s

 Efield perturbation    1:  X                                         67077.84s

 Efield perturbation    2:  Y                                         67942.87s

 Efield perturbation    3:  Z                                         68596.47s
 + Mode number:  25 completed;                   time taken:  5381.86 seconds +
 + Mode    26: not Raman active; calculation not required                     +
 + Mode    27: performing Raman intensity calculation                         +

 Efield perturbation    1:  X                                         69707.97s

 Efield perturbation    2:  Y                                         70597.59s

 Efield perturbation    3:  Z                                         71684.94s

 Efield perturbation    1:  X                                         72608.78s

 Efield perturbation    2:  Y                                         73277.40s

 Efield perturbation    3:  Z                                         74306.91s
 + Mode number:  27 completed;                   time taken:  5665.60 seconds +
 + Mode    28: performing Raman intensity calculation                         +

 Efield perturbation    1:  X                                         75338.57s

 Efield perturbation    2:  Y                                         76504.22s

 Efield perturbation    3:  Z                                         77036.34s

 Efield perturbation    1:  X                                         77998.06s

 Efield perturbation    2:  Y                                         79123.06s

 Efield perturbation    3:  Z                                         79648.41s
 + Mode number:  28 completed;                   time taken:  5369.19 seconds +
 + Checkpointing.....                                                         +

Writing analysis data to Pbcn.castep_bin

Writing model to Pbcn.check
 + Mode    29: performing Raman intensity calculation                         +

 Efield perturbation    1:  X                                         80717.39s

 Efield perturbation    2:  Y                                         82049.49s

 Efield perturbation    3:  Z                                         82716.28s

 Efield perturbation    1:  X                                         83779.08s

 Efield perturbation    2:  Y                                         85099.24s

 Efield perturbation    3:  Z                                         85781.93s
 + Mode number:  29 completed;                   time taken:  6150.11 seconds +
 + Mode    30: not Raman active; calculation not required                     +
 + Mode    31: not Raman active; calculation not required                     +
 + Mode    32: performing Raman intensity calculation                         +

 Efield perturbation    1:  X                                         86721.51s

 Efield perturbation    2:  Y                                         87879.23s

 Efield perturbation    3:  Z                                         88615.82s

 Efield perturbation    1:  X                                         89737.87s

 Efield perturbation    2:  Y                                         91052.15s

 Efield perturbation    3:  Z                                         91784.43s
 + Mode number:  32 completed;                   time taken:  6028.01 seconds +
 + Mode    33: not Raman active; calculation not required                     +
 + Mode    34: not Raman active; calculation not required                     +
 + Mode    35: performing Raman intensity calculation                         +

 Efield perturbation    1:  X                                         92767.06s

 Efield perturbation    2:  Y                                         93458.19s

 Efield perturbation    3:  Z                                         94152.12s

 Efield perturbation    1:  X                                         95063.54s

 Efield perturbation    2:  Y                                         95716.31s

 Efield perturbation    3:  Z                                         96430.58s
 + Mode number:  35 completed;                   time taken:  4670.82 seconds +
 + Checkpointing.....                                                         +

Writing analysis data to Pbcn.castep_bin

Writing model to Pbcn.check
 + Mode    36: performing Raman intensity calculation                         +

 Efield perturbation    1:  X                                         97640.05s

 Efield perturbation    2:  Y                                         98542.99s

 Efield perturbation    3:  Z                                         99511.05s

 Efield perturbation    1:  X                                        100590.52s

 Efield perturbation    2:  Y                                        101518.43s

 Efield perturbation    3:  Z                                        102643.29s
 + Mode number:  36 completed;                   time taken:  6162.35 seconds +
 + Mode    37: not Raman active; calculation not required                     +
 + Mode    38: not Raman active; calculation not required                     +
 + Mode    39: performing Raman intensity calculation                         +

 Efield perturbation    1:  X                                        103797.16s

 Efield perturbation    2:  Y                                        104728.24s

 Efield perturbation    3:  Z                                        105745.91s

 Efield perturbation    1:  X                                        106754.44s

 Efield perturbation    2:  Y                                        107627.06s

 Efield perturbation    3:  Z                                        108700.30s
 + Mode number:  39 completed;                   time taken:  5980.22 seconds +
 + Mode    40: performing Raman intensity calculation                         +

 Efield perturbation    1:  X                                        109578.89s

 Efield perturbation    2:  Y                                        110249.04s

 Efield perturbation    3:  Z                                        110932.46s

 Efield perturbation    1:  X                                        111870.93s

 Efield perturbation    2:  Y                                        112534.44s

 Efield perturbation    3:  Z                                        113226.59s
 + Mode number:  40 completed;                   time taken:  4622.26 seconds +
 + Checkpointing.....                                                         +

Writing analysis data to Pbcn.castep_bin

Writing model to Pbcn.check
 + Mode    41: not Raman active; calculation not required                     +
 + Mode    42: not Raman active; calculation not required                     +
 + Mode    43: performing Raman intensity calculation                         +

 Efield perturbation    1:  X                                        114318.66s

 Efield perturbation    2:  Y                                        115194.85s

 Efield perturbation    3:  Z                                        116187.74s

 Efield perturbation    1:  X                                        117169.61s

 Efield perturbation    2:  Y                                        118037.86s

 Efield perturbation    3:  Z                                        119043.63s
 + Mode number:  43 completed;                   time taken:  5714.83 seconds +
 + Mode    44: performing Raman intensity calculation                         +

 Efield perturbation    1:  X                                        119915.89s

 Efield perturbation    2:  Y                                        120598.25s

 Efield perturbation    3:  Z                                        121287.58s

 Efield perturbation    1:  X                                        122219.85s

 Efield perturbation    2:  Y                                        122931.67s

 Efield perturbation    3:  Z                                        123655.62s
 + Mode number:  44 completed;                   time taken:  4748.45 seconds +
 + Mode    45: performing Raman intensity calculation                         +

 Efield perturbation    1:  X                                        124867.76s

 Efield perturbation    2:  Y                                        126122.41s

 Efield perturbation    3:  Z                                        126824.85s

 Efield perturbation    1:  X                                        127833.17s

 Efield perturbation    2:  Y                                        129029.82s

 Efield perturbation    3:  Z                                        129692.71s
 + Mode number:  45 completed;                   time taken:  5916.24 seconds +
 + Checkpointing.....                                                         +

Writing analysis data to Pbcn.castep_bin

Writing model to Pbcn.check
 + Mode    46: not Raman active; calculation not required                     +
 + Mode    47: not Raman active; calculation not required                     +
 + Mode    48: performing Raman intensity calculation                         +

 Efield perturbation    1:  X                                        130728.51s

 Efield perturbation    2:  Y                                        131952.57s

 Efield perturbation    3:  Z                                        132589.54s

 Efield perturbation    1:  X                                        133671.49s

 Efield perturbation    2:  Y                                        134896.48s

 Efield perturbation    3:  Z                                        135508.81s
 + Mode number:  48 completed;                   time taken:  5844.01 seconds +
 + Mode    49: performing Raman intensity calculation                         +

 Efield perturbation    1:  X                                        136575.89s

 Efield perturbation    2:  Y                                        137417.63s

 Efield perturbation    3:  Z                                        138400.65s

 Efield perturbation    1:  X                                        139232.09s

 Efield perturbation    2:  Y                                        140098.24s

 Efield perturbation    3:  Z                                        141080.39s
 + Mode number:  49 completed;                   time taken:  5482.41 seconds +
 + Mode    50: not Raman active; calculation not required                     +
 + Mode    51: performing Raman intensity calculation                         +

 Efield perturbation    1:  X                                        142010.96s

 Efield perturbation    2:  Y                                        143208.21s

 Efield perturbation    3:  Z                                        143817.37s

 Efield perturbation    1:  X                                        144837.00s

 Efield perturbation    2:  Y                                        146104.99s

 Efield perturbation    3:  Z                                        146716.25s
 + Mode number:  51 completed;                   time taken:  5704.18 seconds +
 + Checkpointing.....                                                         +

Writing analysis data to Pbcn.castep_bin

Writing model to Pbcn.check
 + Mode    52: performing Raman intensity calculation                         +

 Efield perturbation    1:  X                                        147610.17s

 Efield perturbation    2:  Y                                        148251.83s

 Efield perturbation    3:  Z                                        148769.56s

 Efield perturbation    1:  X                                        149368.91s

 Efield perturbation    2:  Y                                        149766.70s

 Efield perturbation    3:  Z                                        150283.77s
 + Mode number:  52 completed;                   time taken:  3438.07 seconds +
 + Mode    53: not Raman active; calculation not required                     +
 + Mode    54: not Raman active; calculation not required                     +
 + Mode    55: performing Raman intensity calculation                         +

 Efield perturbation    1:  X                                        151303.95s

 Efield perturbation    2:  Y                                        152595.48s

 Efield perturbation    3:  Z                                        153289.24s

 Efield perturbation    1:  X                                        154365.54s

 Efield perturbation    2:  Y                                        155669.48s

 Efield perturbation    3:  Z                                        156340.25s
 + Mode number:  55 completed;                   time taken:  6120.09 seconds +
 + Mode    56: performing Raman intensity calculation                         +

 Efield perturbation    1:  X                                        157414.12s

 Efield perturbation    2:  Y                                        158488.42s

 Efield perturbation    3:  Z                                        158892.21s

 Efield perturbation    1:  X                                        159563.45s

 Efield perturbation    2:  Y                                        160675.58s

 Efield perturbation    3:  Z                                        161272.76s
 + Mode number:  56 completed;                   time taken:  5034.74 seconds +
 + Checkpointing.....                                                         +

Writing analysis data to Pbcn.castep_bin

Writing model to Pbcn.check
 + Mode    57: not Raman active; calculation not required                     +
 + Mode    58: performing Raman intensity calculation                         +

 Efield perturbation    1:  X                                        162345.53s

 Efield perturbation    2:  Y                                        163182.67s

 Efield perturbation    3:  Z                                        164234.40s

 Efield perturbation    1:  X                                        165285.81s

 Efield perturbation    2:  Y                                        166244.75s

 Efield perturbation    3:  Z                                        167228.00s
 + Mode number:  58 completed;                   time taken:  5746.81 seconds +
 + Mode    59: not Raman active; calculation not required                     +
 + Mode    60: performing Raman intensity calculation                         +

 Efield perturbation    1:  X                                        167987.73s

 Efield perturbation    2:  Y                                        168726.61s

 Efield perturbation    3:  Z                                        169348.41s

 Efield perturbation    1:  X                                        170454.15s

 Efield perturbation    2:  Y                                        171862.53s

 Efield perturbation    3:  Z                                        172611.75s
 + Mode number:  60 completed;                   time taken:  5593.47 seconds +
 + Mode    61: performing Raman intensity calculation                         +

 Efield perturbation    1:  X                                        173815.57s

 Efield perturbation    2:  Y                                        175176.27s

 Efield perturbation    3:  Z                                        175806.91s

 Efield perturbation    1:  X                                        176677.94s

 Efield perturbation    2:  Y                                        177713.70s

 Efield perturbation    3:  Z                                        178419.46s
 + Mode number:  61 completed;                   time taken:  5847.28 seconds +
 + Checkpointing.....                                                         +

Writing analysis data to Pbcn.castep_bin

Writing model to Pbcn.check
 + Mode    62: not Raman active; calculation not required                     +
 + Mode    63: performing Raman intensity calculation                         +

 Efield perturbation    1:  X                                        179660.19s

 Efield perturbation    2:  Y                                        181059.43s

 Efield perturbation    3:  Z                                        181750.74s

 Efield perturbation    1:  X                                        182864.94s

 Efield perturbation    2:  Y                                        184092.81s

 Efield perturbation    3:  Z                                        184627.91s
 + Mode number:  63 completed;                   time taken:  5948.58 seconds +
 + Mode    64: performing Raman intensity calculation                         +

 Efield perturbation    1:  X                                        185398.51s

 Efield perturbation    2:  Y                                        186705.88s

 Efield perturbation    3:  Z                                        187407.77s

 Efield perturbation    1:  X                                        188532.38s

 Efield perturbation    2:  Y                                        189931.72s

 Efield perturbation    3:  Z                                        190573.04s
 + Mode number:  64 completed;                   time taken:  6045.79 seconds +
 + Mode    65: not Raman active; calculation not required                     +
 + Mode    66: not Raman active; calculation not required                     +
 + Mode    67: performing Raman intensity calculation                         +

 Efield perturbation    1:  X                                        191359.92s

 Efield perturbation    2:  Y                                        191843.35s

 Efield perturbation    3:  Z                                        192352.84s

 Efield perturbation    1:  X                                        193251.33s

 Efield perturbation    2:  Y                                        193895.74s

 Efield perturbation    3:  Z                                        194510.45s
 + Mode number:  67 completed;                   time taken:  3873.27 seconds +
 + Checkpointing.....                                                         +

Writing analysis data to Pbcn.castep_bin

Writing model to Pbcn.check
 + Mode    68: not Raman active; calculation not required                     +
 + Mode    69: not Raman active; calculation not required                     +
 + Mode    70: not Raman active; calculation not required                     +
 + Mode    71: not Raman active; calculation not required                     +
 + Mode    72: performing Raman intensity calculation                         +

 Efield perturbation    1:  X                                        195360.88s

 Efield perturbation    2:  Y                                        196057.41s

 Efield perturbation    3:  Z                                        196815.08s

 Efield perturbation    1:  X                                        197499.66s

 Efield perturbation    2:  Y                                        198072.39s

 Efield perturbation    3:  Z                                        199218.48s
 + Mode number:  72 completed;                   time taken:  4920.57 seconds +
 + Mode    73: not Raman active; calculation not required                     +
 + Mode    74: performing Raman intensity calculation                         +

 Efield perturbation    1:  X                                        200207.51s

 Efield perturbation    2:  Y                                        200912.91s

 Efield perturbation    3:  Z                                        201547.97s

 Efield perturbation    1:  X                                        202507.42s

 Efield perturbation    2:  Y                                        203208.58s

 Efield perturbation    3:  Z                                        203894.62s
 + Mode number:  74 completed;                   time taken:  4613.47 seconds +
 + Mode    75: not Raman active; calculation not required                     +
 + Mode    76: performing Raman intensity calculation                         +

 Efield perturbation    1:  X                                        204957.47s

 Efield perturbation    2:  Y                                        206188.28s

 Efield perturbation    3:  Z                                        206701.23s

 Efield perturbation    1:  X                                        207663.17s

 Efield perturbation    2:  Y                                        208827.54s

 Efield perturbation    3:  Z                                        209446.92s
 + Mode number:  76 completed;                   time taken:  5538.25 seconds +
 + Checkpointing.....                                                         +

Writing analysis data to Pbcn.castep_bin

Writing model to Pbcn.check
 + Mode    77: not Raman active; calculation not required                     +
 + Mode    78: not Raman active; calculation not required                     +
 + Mode    79: performing Raman intensity calculation                         +

 Efield perturbation    1:  X                                        210345.46s

 Efield perturbation    2:  Y                                        210954.13s

 Efield perturbation    3:  Z                                        211594.19s

 Efield perturbation    1:  X                                        212516.60s

 Efield perturbation    2:  Y                                        213187.89s

 Efield perturbation    3:  Z                                        213869.50s
 + Mode number:  79 completed;                   time taken:  4476.59 seconds +
 + Mode    80: not Raman active; calculation not required                     +
 + Mode    81: performing Raman intensity calculation                         +

 Efield perturbation    1:  X                                        214964.37s

 Efield perturbation    2:  Y                                        215750.23s

 Efield perturbation    3:  Z                                        216361.54s

 Efield perturbation    1:  X                                        217348.41s

 Efield perturbation    2:  Y                                        218569.42s

 Efield perturbation    3:  Z                                        219219.47s
 + Mode number:  81 completed;                   time taken:  5260.20 seconds +
 + Mode    82: not Raman active; calculation not required                     +
 + Mode    83: not Raman active; calculation not required                     +
 + Mode    84: performing Raman intensity calculation                         +

 Efield perturbation    1:  X                                        220209.59s

 Efield perturbation    2:  Y                                        221018.76s

 Efield perturbation    3:  Z                                        222024.43s

 Efield perturbation    1:  X                                        222894.95s

 Efield perturbation    2:  Y                                        223475.71s

 Efield perturbation    3:  Z                                        224364.93s
 + Mode number:  84 completed;                   time taken:  5074.81 seconds +
 + Checkpointing.....                                                         +

Writing analysis data to Pbcn.castep_bin

Writing model to Pbcn.check
 + Mode    85: performing Raman intensity calculation                         +

 Efield perturbation    1:  X                                        225292.83s

 Efield perturbation    2:  Y                                        226436.72s

 Efield perturbation    3:  Z                                        227078.39s

 Efield perturbation    1:  X                                        228040.35s

 Efield perturbation    2:  Y                                        229182.40s

 Efield perturbation    3:  Z                                        229807.66s
 + Mode number:  85 completed;                   time taken:  5443.80 seconds +
 + Mode    86: not Raman active; calculation not required                     +
 + Mode    87: performing Raman intensity calculation                         +

 Efield perturbation    1:  X                                        230640.09s

 Efield perturbation    2:  Y                                        231732.72s

 Efield perturbation    3:  Z                                        232336.20s

 Efield perturbation    1:  X                                        233201.78s

 Efield perturbation    2:  Y                                        234285.68s

 Efield perturbation    3:  Z                                        234911.30s
 + Mode number:  87 completed;                   time taken:  5282.85 seconds +
 + Mode    88: performing Raman intensity calculation                         +

 Efield perturbation    1:  X                                        235921.66s

 Efield perturbation    2:  Y                                        236584.62s

 Efield perturbation    3:  Z                                        237262.01s

 Efield perturbation    1:  X                                        238034.74s

 Efield perturbation    2:  Y                                        238580.63s

 Efield perturbation    3:  Z                                        239220.16s
 + Mode number:  88 completed;                   time taken:  4224.84 seconds +
 + Checkpointing.....                                                         +

Writing analysis data to Pbcn.castep_bin

Writing model to Pbcn.check
 + Mode    89: performing Raman intensity calculation                         +

 Efield perturbation    1:  X                                        240253.33s

 Efield perturbation    2:  Y                                        241046.44s

 Efield perturbation    3:  Z                                        241946.73s

 Efield perturbation    1:  X                                        242748.44s

 Efield perturbation    2:  Y                                        243415.78s

 Efield perturbation    3:  Z                                        244331.47s
 + Mode number:  89 completed;                   time taken:  5029.77 seconds +
 + Mode    90: performing Raman intensity calculation                         +

 Efield perturbation    1:  X                                        245306.97s

 Efield perturbation    2:  Y                                        245959.71s

 Efield perturbation    3:  Z                                        246897.71s

 Efield perturbation    1:  X                                        247864.11s

 Efield perturbation    2:  Y                                        248706.86s

 Efield perturbation    3:  Z                                        249654.16s
 + Mode number:  90 completed;                   time taken:  5324.87 seconds +
 + Mode    91: not Raman active; calculation not required                     +
 + Mode    92: not Raman active; calculation not required                     +
 + Mode    93: performing Raman intensity calculation                         +

 Efield perturbation    1:  X                                        250662.69s

 Efield perturbation    2:  Y                                        251841.54s

 Efield perturbation    3:  Z                                        252377.95s

 Efield perturbation    1:  X                                        253112.42s

 Efield perturbation    2:  Y                                        254194.70s

 Efield perturbation    3:  Z                                        254856.87s
 + Mode number:  93 completed;                   time taken:  5230.89 seconds +
 + Checkpointing.....                                                         +

Writing analysis data to Pbcn.castep_bin

Writing model to Pbcn.check
 + Mode    94: performing Raman intensity calculation                         +

 Efield perturbation    1:  X                                        255762.57s

 Efield perturbation    2:  Y                                        256460.69s

 Efield perturbation    3:  Z                                        257154.84s

 Efield perturbation    1:  X                                        258110.84s

 Efield perturbation    2:  Y                                        258771.30s

 Efield perturbation    3:  Z                                        259431.20s
 + Mode number:  94 completed;                   time taken:  4631.67 seconds +
 + Mode    95: not Raman active; calculation not required                     +
 + Mode    96: performing Raman intensity calculation                         +

 Efield perturbation    1:  X                                        260516.08s

 Efield perturbation    2:  Y                                        261657.14s

 Efield perturbation    3:  Z                                        262247.05s

 Efield perturbation    1:  X                                        263031.03s

 Efield perturbation    2:  Y                                        264100.16s

 Efield perturbation    3:  Z                                        264755.45s
 + Mode number:  96 completed;                   time taken:  5305.62 seconds +
 + Mode    97: performing Raman intensity calculation                         +

 Efield perturbation    1:  X                                        265838.58s

 Efield perturbation    2:  Y                                        267096.46s

 Efield perturbation    3:  Z                                        267710.37s

 Efield perturbation    1:  X                                        268752.07s

 Efield perturbation    2:  Y                                        269902.63s

 Efield perturbation    3:  Z                                        270461.26s
 + Mode number:  97 completed;                   time taken:  5700.18 seconds +
 + Checkpointing.....                                                         +

Writing analysis data to Pbcn.castep_bin

Writing model to Pbcn.check
 + Mode    98: performing Raman intensity calculation                         +

 Efield perturbation    1:  X                                        271532.33s

 Efield perturbation    2:  Y                                        272399.29s

 Efield perturbation    3:  Z                                        273408.42s

 Efield perturbation    1:  X                                        274145.43s

 Efield perturbation    2:  Y                                        274920.32s

 Efield perturbation    3:  Z                                        275903.50s
 + Mode number:  98 completed;                   time taken:  5387.99 seconds +
 + Mode    99: not Raman active; calculation not required                     +
 + Mode   100: not Raman active; calculation not required                     +
 + Mode   101: performing Raman intensity calculation                         +

 Efield perturbation    1:  X                                        276905.08s

 Efield perturbation    2:  Y                                        278096.33s

 Efield perturbation    3:  Z                                        278622.27s

 Efield perturbation    1:  X                                        279639.50s

 Efield perturbation    2:  Y                                        280863.34s

 Efield perturbation    3:  Z                                        281466.88s
 + Mode number: 101 completed;                   time taken:  5630.82 seconds +
 + Mode   102: not Raman active; calculation not required                     +
 + Mode   103: performing Raman intensity calculation                         +

 Efield perturbation    1:  X                                        282526.65s

 Efield perturbation    2:  Y                                        283335.34s

 Efield perturbation    3:  Z                                        284275.47s

 Efield perturbation    1:  X                                        285099.54s

 Efield perturbation    2:  Y                                        285797.54s

 Efield perturbation    3:  Z                                        286801.93s
 + Mode number: 103 completed;                   time taken:  5197.49 seconds +
 + Checkpointing.....                                                         +

Writing analysis data to Pbcn.castep_bin

Writing model to Pbcn.check
 + Mode   104: not Raman active; calculation not required                     +
 + Mode   105: not Raman active; calculation not required                     +
 + Mode   106: performing Raman intensity calculation                         +

 Efield perturbation    1:  X                                        287726.50s

 Efield perturbation    2:  Y                                        288914.33s

 Efield perturbation    3:  Z                                        289551.30s

 Efield perturbation    1:  X                                        290552.95s

 Efield perturbation    2:  Y                                        291720.06s

 Efield perturbation    3:  Z                                        292355.14s
 + Mode number: 106 completed;                   time taken:  5650.84 seconds +
 + Mode   107: not Raman active; calculation not required                     +
 + Mode   108: not Raman active; calculation not required                     +
 + Mode   109: not Raman active; calculation not required                     +
 + Mode   110: not Raman active; calculation not required                     +
 + Mode   111: performing Raman intensity calculation                         +

 Efield perturbation    1:  X                                        293244.76s

 Efield perturbation    2:  Y                                        293882.22s

 Efield perturbation    3:  Z                                        294518.40s

 Efield perturbation    1:  X                                        295381.28s

 Efield perturbation    2:  Y                                        295868.63s

 Efield perturbation    3:  Z                                        296337.70s
 + Mode number: 111 completed;                   time taken:  4027.90 seconds +
 + Mode   112: not Raman active; calculation not required                     +
 + Mode   113: performing Raman intensity calculation                         +

 Efield perturbation    1:  X                                        297406.78s

 Efield perturbation    2:  Y                                        298578.37s

 Efield perturbation    3:  Z                                        299170.19s

 Efield perturbation    1:  X                                        300152.03s

 Efield perturbation    2:  Y                                        301310.14s

 Efield perturbation    3:  Z                                        301903.12s
 + Mode number: 113 completed;                   time taken:  5470.60 seconds +
 + Checkpointing.....                                                         +

Writing analysis data to Pbcn.castep_bin

Writing model to Pbcn.check
 + Mode   114: not Raman active; calculation not required                     +
 + Mode   115: not Raman active; calculation not required                     +
 + Mode   116: performing Raman intensity calculation                         +

 Efield perturbation    1:  X                                        302727.28s

 Efield perturbation    2:  Y                                        303360.80s

 Efield perturbation    3:  Z                                        303960.46s

 Efield perturbation    1:  X                                        304778.26s

 Efield perturbation    2:  Y                                        305272.58s

 Efield perturbation    3:  Z                                        305763.58s
 + Mode number: 116 completed;                   time taken:  3696.50 seconds +
 + Mode   117: performing Raman intensity calculation                         +

 Efield perturbation    1:  X                                        306444.35s

 Efield perturbation    2:  Y                                        307369.36s

 Efield perturbation    3:  Z                                        307897.58s

 Efield perturbation    1:  X                                        308659.81s

 Efield perturbation    2:  Y                                        309532.05s

 Efield perturbation    3:  Z                                        310050.62s
 + Mode number: 117 completed;                   time taken:  4330.11 seconds +
 + Mode   118: not Raman active; calculation not required                     +
 + Mode   119: not Raman active; calculation not required                     +
 + Mode   120: not Raman active; calculation not required                     +
 + Mode   121: performing Raman intensity calculation                         +

 Efield perturbation    1:  X                                        310731.36s

 Efield perturbation    2:  Y                                        311240.04s

 Efield perturbation    3:  Z                                        311750.15s

 Efield perturbation    1:  X                                        312451.65s

 Efield perturbation    2:  Y                                        312950.04s

 Efield perturbation    3:  Z                                        313438.73s
 + Mode number: 121 completed;                   time taken:  3419.78 seconds +
 + Mode   122: not Raman active; calculation not required                     +
 + Mode   123: not Raman active; calculation not required                     +
 + Mode   124: performing Raman intensity calculation                         +

 Efield perturbation    1:  X                                        314233.57s

 Efield perturbation    2:  Y                                        314955.06s

 Efield perturbation    3:  Z                                        315333.86s

 Efield perturbation    1:  X                                        315943.41s

 Efield perturbation    2:  Y                                        316809.04s

 Efield perturbation    3:  Z                                        317295.06s
 + Mode number: 124 completed;                   time taken:  3819.51 seconds +
 + Checkpointing.....                                                         +

Writing analysis data to Pbcn.castep_bin

Writing model to Pbcn.check
 + Mode   125: performing Raman intensity calculation                         +

 Efield perturbation    1:  X                                        318057.93s

 Efield perturbation    2:  Y                                        318915.63s

 Efield perturbation    3:  Z                                        319391.85s

 Efield perturbation    1:  X                                        320111.94s

 Efield perturbation    2:  Y                                        320952.69s

 Efield perturbation    3:  Z                                        321342.88s
 + Mode number: 125 completed;                   time taken:  3996.65 seconds +
 + Mode   126: not Raman active; calculation not required                     +
 + Mode   127: not Raman active; calculation not required                     +
 + Mode   128: performing Raman intensity calculation                         +

 Efield perturbation    1:  X                                        321948.42s

 Efield perturbation    2:  Y                                        322421.14s

 Efield perturbation    3:  Z                                        322877.71s

 Efield perturbation    1:  X                                        323433.07s

 Efield perturbation    2:  Y                                        323813.40s

 Efield perturbation    3:  Z                                        324191.86s
 + Mode number: 128 completed;                   time taken:  2878.50 seconds +
 + Mode   129: not Raman active; calculation not required                     +
 + Mode   130: performing Raman intensity calculation                         +

 Efield perturbation    1:  X                                        324925.75s

 Efield perturbation    2:  Y                                        325789.41s

 Efield perturbation    3:  Z                                        326231.84s

 Efield perturbation    1:  X                                        327007.19s

 Efield perturbation    2:  Y                                        327808.59s

 Efield perturbation    3:  Z                                        328232.62s
 + Mode number: 130 completed;                   time taken:  4107.04 seconds +
 + Mode   131: performing Raman intensity calculation                         +

 Efield perturbation    1:  X                                        329062.23s

 Efield perturbation    2:  Y                                        329701.69s

 Efield perturbation    3:  Z                                        330436.23s

 Efield perturbation    1:  X                                        331154.19s

 Efield perturbation    2:  Y                                        331683.12s

 Efield perturbation    3:  Z                                        332250.36s
 + Mode number: 131 completed;                   time taken:  3860.98 seconds +
 + Checkpointing.....                                                         +

Writing analysis data to Pbcn.castep_bin

Writing model to Pbcn.check
 + Mode   132: not Raman active; calculation not required                     +
 + Mode   133: performing Raman intensity calculation                         +

 Efield perturbation    1:  X                                        332879.98s

 Efield perturbation    2:  Y                                        333527.88s

 Efield perturbation    3:  Z                                        334245.56s

 Efield perturbation    1:  X                                        334886.70s

 Efield perturbation    2:  Y                                        335519.97s

 Efield perturbation    3:  Z                                        336240.23s
 + Mode number: 133 completed;                   time taken:  4084.23 seconds +
 + Mode   134: performing Raman intensity calculation                         +

 Efield perturbation    1:  X                                        336885.40s

 Efield perturbation    2:  Y                                        337378.65s

 Efield perturbation    3:  Z                                        337870.52s

 Efield perturbation    1:  X                                        338518.54s

 Efield perturbation    2:  Y                                        338947.37s

 Efield perturbation    3:  Z                                        339334.45s
 + Mode number: 134 completed;                   time taken:  3031.17 seconds +
[...]
              H 13 -- H 30                  -0.05        2.13046
              H 12 -- H 19                  -0.05        2.13046
              H 25 -- H 28                  -0.10        2.13106
              H 7  -- H 10                  -0.10        2.13106
              H 19 -- H 22                  -0.10        2.13106
              H 13 -- H 16                  -0.10        2.13106
              H 43 -- H 46                  -0.10        2.13106
              H 37 -- H 40                  -0.10        2.13106
              H 31 -- H 34                  -0.10        2.13106
              H 3  -- H 6                   -0.10        2.13106
              H 23 -- H 48                  -0.05        2.13648
              H 17 -- H 42                  -0.05        2.13648
              H 11 -- H 36                  -0.05        2.13648
              H 1  -- H 29                  -0.05        2.13648
              H 24 -- H 47                  -0.05        2.13648
              H 18 -- H 41                  -0.05        2.13648
              H 12 -- H 35                  -0.05        2.13648
              H 2  -- H 30                  -0.05        2.13648
              H 36 -- H 44                  -0.05        2.14478
              H 8  -- H 24                  -0.05        2.14478
              H 18 -- H 26                  -0.05        2.14478
              H 1  -- H 38                  -0.05        2.14478
              H 14 -- H 30                  -0.05        2.14478
              H 5  -- H 42                  -0.05        2.14478
              H 32 -- H 48                  -0.05        2.14478
              H 12 -- H 20                  -0.05        2.14478
              H 9  -- H 25                  -0.15        2.16400
              H 13 -- H 21                  -0.15        2.16400
              H 7  -- H 27                  -0.15        2.16400
              H 15 -- H 19                  -0.15        2.16400
              H 4  -- H 31                  -0.15        2.16400
              H 6  -- H 33                  -0.15        2.16400
              H 39 -- H 43                  -0.15        2.16400
              H 37 -- H 45                  -0.15        2.16400
              H 35 -- H 39                  -0.04        2.16936
              H 9  -- H 17                  -0.04        2.16936
              H 2  -- H 45                  -0.04        2.16936
              H 23 -- H 27                  -0.04        2.16936
              H 4  -- H 47                  -0.04        2.16936
              H 33 -- H 41                  -0.04        2.16936
              H 21 -- H 29                  -0.04        2.16936
              H 11 -- H 15                  -0.04        2.16936
              H 34 -- H 35                  -0.05        2.18603
              H 2  -- H 3                   -0.05        2.18603
              H 46 -- H 47                  -0.05        2.18603
              H 40 -- H 41                  -0.05        2.18603
              H 28 -- H 29                  -0.05        2.18603
              H 10 -- H 11                  -0.05        2.18603
              H 22 -- H 23                  -0.05        2.18603
              H 16 -- H 17                  -0.05        2.18603
              H 36 -- H 39                  -0.04        2.18658
              H 24 -- H 27                  -0.04        2.18658
              H 1  -- H 45                  -0.04        2.18658
              H 9  -- H 18                  -0.04        2.18658
              H 21 -- H 30                  -0.04        2.18658
              H 12 -- H 15                  -0.04        2.18658
              H 33 -- H 42                  -0.04        2.18658
              H 4  -- H 48                  -0.04        2.18658
              H 23 -- H 31                  -0.04        2.18747
              H 6  -- H 17                  -0.04        2.18747
              H 29 -- H 37                  -0.04        2.18747
              H 11 -- H 43                  -0.04        2.18747
              H 25 -- H 41                  -0.04        2.18747
              H 7  -- H 47                  -0.04        2.18747
              H 19 -- H 35                  -0.04        2.18747
              H 2  -- H 13                  -0.04        2.18747
              H 34 -- H 39                  -0.09        2.19590
              H 3  -- H 45                  -0.09        2.19590
              H 22 -- H 27                  -0.09        2.19590
              H 21 -- H 28                  -0.09        2.19590
              H 9  -- H 16                  -0.09        2.19590
              H 10 -- H 15                  -0.09        2.19590
              H 33 -- H 40                  -0.09        2.19590
              H 4  -- H 46                  -0.09        2.19590
              H 6  -- H 35                  -0.03        2.21631
              H 2  -- H 31                  -0.03        2.21631
              H 41 -- H 43                  -0.03        2.21631
              H 13 -- H 23                  -0.03        2.21631
              H 37 -- H 47                  -0.03        2.21631
              H 7  -- H 29                  -0.03        2.21631
              H 17 -- H 19                  -0.03        2.21631
              H 11 -- H 25                  -0.03        2.21631
              H 8  -- H 39                  -0.11        2.21820
              H 26 -- H 45                  -0.11        2.21820
              H 5  -- H 21                  -0.11        2.21820
              H 27 -- H 44                  -0.11        2.21820
              H 14 -- H 33                  -0.11        2.21820
              H 9  -- H 38                  -0.11        2.21820
              H 4  -- H 20                  -0.11        2.21820
              H 15 -- H 32                  -0.11        2.21820
              H 9  -- H 24                  -0.04        2.23228
              H 36 -- H 45                  -0.04        2.23228
              H 18 -- H 27                  -0.04        2.23228
              H 1  -- H 39                  -0.04        2.23228
              H 15 -- H 30                  -0.04        2.23228
              H 12 -- H 21                  -0.04        2.23228
              H 33 -- H 48                  -0.04        2.23228
              H 4  -- H 42                  -0.04        2.23228
              H 26 -- H 42                  -0.04        2.23593
              H 8  -- H 48                  -0.04        2.23593
              H 12 -- H 44                  -0.04        2.23593
              H 30 -- H 38                  -0.04        2.23593
              H 5  -- H 18                  -0.04        2.23593
              H 24 -- H 32                  -0.04        2.23593
              H 1  -- H 14                  -0.04        2.23593
              H 20 -- H 36                  -0.04        2.23593
              H 11 -- H 19                  -0.03        2.25937
              H 13 -- H 29                  -0.03        2.25937
              H 17 -- H 25                  -0.03        2.25937
              H 31 -- H 47                  -0.03        2.25937
              H 7  -- H 23                  -0.03        2.25937
              H 6  -- H 41                  -0.03        2.25937
              H 2  -- H 37                  -0.03        2.25937
              H 35 -- H 43                  -0.03        2.25937
              H 42 -- H 45                  -0.09        2.27188
              H 9  -- H 30                  -0.09        2.27188
              H 39 -- H 48                  -0.09        2.27188
              H 12 -- H 27                  -0.09        2.27188
              H 15 -- H 24                  -0.09        2.27188
              H 4  -- H 36                  -0.09        2.27188
              H 18 -- H 21                  -0.09        2.27188
              H 1  -- H 33                  -0.09        2.27188
              H 19 -- H 29                  -0.05        2.31492
              H 23 -- H 25                  -0.05        2.31492
              H 31 -- H 41                  -0.05        2.31492
              H 11 -- H 13                  -0.05        2.31492
              H 7  -- H 17                  -0.05        2.31492
              H 6  -- H 47                  -0.05        2.31492
              H 35 -- H 37                  -0.05        2.31492
              H 2  -- H 43                  -0.05        2.31492
              H 8  -- H 30                  -0.04        2.35526
              H 5  -- H 36                  -0.04        2.35526
              H 18 -- H 20                  -0.04        2.35526
              H 14 -- H 24                  -0.04        2.35526
              H 1  -- H 32                  -0.04        2.35526
              H 42 -- H 44                  -0.04        2.35526
              H 12 -- H 26                  -0.04        2.35526
              H 38 -- H 48                  -0.04        2.35526
              H 20 -- H 29                  -0.05        2.40587
              H 32 -- H 41                  -0.05        2.40587
              H 11 -- H 14                  -0.05        2.40587
              H 5  -- H 47                  -0.05        2.40587
              H 23 -- H 26                  -0.05        2.40587
              H 8  -- H 17                  -0.05        2.40587
              H 35 -- H 38                  -0.05        2.40587
              H 2  -- H 44                  -0.05        2.40587
              H 11 -- H 22                  -0.11        2.41554
              H 17 -- H 28                  -0.11        2.41554
              H 10 -- H 23                  -0.11        2.41554
              H 16 -- H 29                  -0.11        2.41554
              H 34 -- H 47                  -0.11        2.41554
              H 3  -- H 41                  -0.11        2.41554
              H 2  -- H 40                  -0.11        2.41554
              H 35 -- H 46                  -0.11        2.41554
              H 12 -- H 24                  -0.09        2.41961
              H 1  -- H 42                  -0.09        2.41961
              H 36 -- H 48                  -0.09        2.41961
              H 18 -- H 30                  -0.09        2.41961
              H 2  -- H 6                   -0.04        2.49837
              H 31 -- H 35                  -0.04        2.49837
              H 43 -- H 47                  -0.04        2.49837
              H 13 -- H 17                  -0.04        2.49837
              H 37 -- H 41                  -0.04        2.49837
              H 19 -- H 23                  -0.04        2.49837
              H 7  -- H 11                  -0.04        2.49837
              H 25 -- H 29                  -0.04        2.49837
              H 17 -- H 23                  -0.01        2.51065
              H 2  -- H 35                  -0.01        2.51065
              H 41 -- H 47                  -0.01        2.51065
              H 11 -- H 29                  -0.01        2.51065
              H 26 -- H 37                  -0.01        2.52786
              H 20 -- H 31                  -0.01        2.52786
              H 8  -- H 43                  -0.01        2.52786
              H 6  -- H 14                  -0.01        2.52786
              H 19 -- H 32                  -0.01        2.52786
              H 5  -- H 13                  -0.01        2.52786
              H 25 -- H 38                  -0.01        2.52786
              H 7  -- H 44                  -0.01        2.52786
              H 26 -- H 48                  -0.03        2.60653
              H 8  -- H 42                  -0.03        2.60653
              H 30 -- H 44                  -0.03        2.60653
              H 12 -- H 38                  -0.03        2.60653
              H 18 -- H 32                  -0.03        2.60653
              H 5  -- H 24                  -0.03        2.60653
              H 14 -- H 36                  -0.03        2.60653
              H 1  -- H 20                  -0.03        2.60653
              H 17 -- H 32                  -0.02        2.64073
              H 5  -- H 23                  -0.02        2.64073
              H 11 -- H 38                  -0.02        2.64073
              H 29 -- H 44                  -0.02        2.64073
              H 2  -- H 20                  -0.02        2.64073
              H 14 -- H 35                  -0.02        2.64073
              H 26 -- H 47                  -0.02        2.64073
              H 8  -- H 41                  -0.02        2.64073
              H 11 -- H 30                  -0.00        2.66476
              H 12 -- H 29                  -0.00        2.66476
              H 42 -- H 47                  -0.00        2.66476
              H 41 -- H 48                  -0.00        2.66476
              H 18 -- H 23                  -0.00        2.66476
              H 1  -- H 35                  -0.00        2.66476
              H 17 -- H 24                  -0.00        2.66476
              H 2  -- H 36                  -0.00        2.66476
              H 15 -- H 40                  -0.00        2.67173
              H 21 -- H 46                  -0.00        2.67173
              H 22 -- H 45                  -0.00        2.67173
              H 3  -- H 27                  -0.00        2.67173
              H 16 -- H 39                  -0.00        2.67173
              H 10 -- H 33                  -0.00        2.67173
              H 9  -- H 34                  -0.00        2.67173
              H 4  -- H 28                  -0.00        2.67173
              H 17 -- H 41                  -0.03        2.68235
              H 23 -- H 47                  -0.03        2.68235
              H 11 -- H 35                  -0.03        2.68235
              H 2  -- H 29                  -0.03        2.68235
              H 34 -- H 36                  -0.04        2.70318
              H 28 -- H 30                  -0.04        2.70318
              H 1  -- H 3                   -0.04        2.70318
              H 10 -- H 12                  -0.04        2.70318
              H 22 -- H 24                  -0.04        2.70318
              H 16 -- H 18                  -0.04        2.70318
              H 40 -- H 42                  -0.04        2.70318
              H 46 -- H 48                  -0.04        2.70318
              H 7  -- H 12                  -0.02        2.70733
              H 25 -- H 30                  -0.02        2.70733
              H 1  -- H 6                   -0.02        2.70733
              H 43 -- H 48                  -0.02        2.70733
              H 13 -- H 18                  -0.02        2.70733
              H 31 -- H 36                  -0.02        2.70733
              H 37 -- H 42                  -0.02        2.70733
              H 19 -- H 24                  -0.02        2.70733
              H 3  -- H 20                  -0.01        2.72406
              H 16 -- H 32                  -0.01        2.72406
              H 14 -- H 34                  -0.01        2.72406
              H 5  -- H 22                  -0.01        2.72406
              H 26 -- H 46                  -0.01        2.72406
              H 8  -- H 40                  -0.01        2.72406
              H 10 -- H 38                  -0.01        2.72406
              H 28 -- H 44                  -0.01        2.72406
              H 29 -- H 38                  -0.02        2.75133
              H 23 -- H 32                  -0.02        2.75133
              H 5  -- H 17                  -0.02        2.75133
              H 11 -- H 44                  -0.02        2.75133
              H 26 -- H 41                  -0.02        2.75133
              H 8  -- H 47                  -0.02        2.75133
              H 20 -- H 35                  -0.02        2.75133
              H 2  -- H 14                  -0.02        2.75133
              H 26 -- H 40                  -0.01        2.80250
              H 8  -- H 46                  -0.01        2.80250
              H 22 -- H 32                  -0.01        2.80250
              H 20 -- H 34                  -0.01        2.80250
              H 28 -- H 38                  -0.01        2.80250
              H 5  -- H 16                  -0.01        2.80250
              H 3  -- H 14                  -0.01        2.80250
              H 10 -- H 44                  -0.01        2.80250
              H 18 -- H 45                  -0.00        2.80826
              H 24 -- H 39                  -0.00        2.80826
              H 1  -- H 9                   -0.00        2.80826
              H 27 -- H 36                  -0.00        2.80826
              H 15 -- H 48                  -0.00        2.80826
              H 4  -- H 12                  -0.00        2.80826
              H 30 -- H 33                  -0.00        2.80826
              H 21 -- H 42                  -0.00        2.80826
              H 42 -- H 48                  -0.00        2.84098
              H 12 -- H 30                  -0.00        2.84098
              H 18 -- H 24                  -0.00        2.84098
              H 1  -- H 36                  -0.00        2.84098
              H 7  -- H 30                  -0.02        2.89376
              H 6  -- H 36                  -0.02        2.89376
              H 12 -- H 25                  -0.02        2.89376
              H 42 -- H 43                  -0.02        2.89376
              H 1  -- H 31                  -0.02        2.89376
              H 13 -- H 24                  -0.02        2.89376
              H 37 -- H 48                  -0.02        2.89376
              H 18 -- H 19                  -0.02        2.89376
              H 8  -- H 37                   0.00        2.90930
              H 14 -- H 31                   0.00        2.90930
              H 26 -- H 43                   0.00        2.90930
              H 6  -- H 20                   0.00        2.90930
              H 25 -- H 44                   0.00        2.90930
              H 5  -- H 19                   0.00        2.90930
              H 13 -- H 32                   0.00        2.90930
              H 7  -- H 38                   0.00        2.90930
              H 16 -- H 45                   0.00        2.94324
              H 27 -- H 34                   0.00        2.94324
              H 22 -- H 39                   0.00        2.94324
              H 3  -- H 9                    0.00        2.94324
              H 15 -- H 46                   0.00        2.94324
              H 21 -- H 40                   0.00        2.94324
              H 28 -- H 33                   0.00        2.94324
              H 4  -- H 10                   0.00        2.94324
              H 7  -- H 35                  -0.00        2.98163
              H 2  -- H 25                  -0.00        2.98163
              H 13 -- H 41                  -0.00        2.98163
              H 19 -- H 47                  -0.00        2.98163
              H 23 -- H 43                  -0.00        2.98163
              H 6  -- H 29                  -0.00        2.98163
              H 11 -- H 31                  -0.00        2.98163
              H 17 -- H 37                  -0.00        2.98163
======================================================================


Writing analysis data to Pbcn.castep_bin

Writing model to Pbcn.check
 
 A BibTeX formatted list of references used in this run has been written to 
 Pbcn.bib
 
Initialisation time =      4.58 s
Calculation time    =  23004.18 s
Finalisation time   =      4.19 s
Total time          =  23012.95 s
Peak Memory Use     = 1666568 kB
  
Overall parallel efficiency rating: Excellent (94%)                             
  
Data was distributed by:-
k-point (4-way); efficiency rating: Excellent (95%)                             
