 +-------------------------------------------------+
 |                                                 |
 |      CCC   AA    SSS  TTTTT  EEEEE  PPPP        |
 |     C     A  A  S       T    E      P   P       |
 |     C     AAAA   SS     T    EEE    PPPP        |
 |     C     A  A     S    T    E      P           |
 |      CCC  A  A  SSS     T    EEEEE  P           |
 |                                                 |
 +-------------------------------------------------+
 |                                                 |
 | Welcome to Academic Release CASTEP version 18.1 |          
 | Ab Initio Total Energy Program                  |
 |                                                 |
 | Authors:                                        |
 | M. Segall, M. Probert, C. Pickard, P. Hasnip,   |
 | S. Clark, K. Refson, J. R. Yates, M. Payne      |
 |                                                 |
 | Contributors:                                   |
 | P. Lindan, P. Haynes, J. White, V. Milman,      |
 | N. Govind, M. Gibson, P. Tulip, V. Cocula,      |
 | B. Montanari, D. Quigley, M. Glover,            |
 | L. Bernasconi, A. Perlov, M. Plummer,           |
 | E. McNellis, J. Meyer, J. Gale, D. Jochym       |
 | J. Aarons, B. Walker, R. Gillen, D. Jones       |
 | T. Green, I. J. Bush, C. J. Armstrong,          |
 | E. J. Higgins, E. L. Brown, M. S. McFly,        |
 | J. Wilkins, B-C. Shih, P. J. P. Byrne           |
 |                                                 |
 | Copyright (c) 2000 - 2017                       |
 |                                                 |
 |     Distributed under the terms of an           |
 |     Agreement between the United Kingdom        |
 |     Car-Parrinello (UKCP) Consortium,           |
 |     Daresbury Laboratory and Accelrys, Inc.     |
 |                                                 |
 | Please cite                                     |
 |                                                 |
 |     "First principles methods using CASTEP"     |
 |                                                 |
 |         Zeitschrift fuer Kristallographie       |
 |           220(5-6) pp. 567-570 (2005)           |
 |                                                 |
 | S. J. Clark, M. D. Segall, C. J. Pickard,       |
 | P. J. Hasnip, M. J. Probert, K. Refson,         |
 | M. C. Payne                                     |
 |                                                 |
 |       in all publications arising from          |
 |              your use of CASTEP                 |
 |                                                 |
 +-------------------------------------------------+


 Compiled for linux_x86_64_gfortran4.8 on Thu, 19 Jul 2018 15:42:32 +0100
 from code version 70483bd0ad64+  Sun, 10 Dec 2017 12:18:29 +0000
 Compiler: GNU Fortran 4.8.5; Optimisation: fast
 MATHLIBS: Intel MKL(2018.0.0) (LAPACK version 3.7.0)
 FFT Lib : mkl
 Fundamental constants values: CODATA 2014

 Run started: Sat, 25 Jul 2020 16:54:17 +0100

 Atomic calculation performed for H: 1s1

 Converged in 41 iterations to an ae energy of -12.488 eV

   ============================================================                
   | Pseudopotential Report - Date of generation 25-07-2020   |                
   ------------------------------------------------------------                
   | Element: H Ionic charge:  1.00 Level of theory: PBE      |                
   | Atomic Solver: Koelling-Harmon                           |                
   |                                                          |                
   |               Reference Electronic Structure             |                
   |         Orbital         Occupation         Energy        |                
   |            1s              1.000           -0.239        |                
   |                                                          |                
   |                 Pseudopotential Definition               |                
   |        Beta     l      e      Rc     scheme   norm       |                
   |         loc     0   -0.239   0.702     qc      1         |                
   |                                                          |                
   | No charge augmentation                                   |                
   | No partial core correction                               |                
   ------------------------------------------------------------                
   | "0|0.7|2|6|8|10L(qc=10)"                                 |                
   ------------------------------------------------------------                
   |      Author: Chris J. Pickard, Cambridge University      |                
   ============================================================                

 Pseudo atomic calculation performed for H 1s1

 Converged in 24 iterations to a total energy of -12.4843 eV

 Calculation parallelised over 8 processes.
 Data is distributed by G-vector(4-way) and k-point(2-way)

 ************************************ Title ************************************
 

 ***************************** General Parameters ******************************
  
 output verbosity                               : normal  (1)
 write checkpoint data to                       : C2c.check
 type of calculation                            : geometry optimization
 stress calculation                             : on
 density difference calculation                 : off
 electron localisation func (ELF) calculation   : off
 Hirshfeld analysis                             : off
 unlimited duration calculation
 timing information                             : on
 memory usage estimate                          : on
 write extra output files                       : on
 write final potential to formatted file        : off
 write final density to formatted file          : off
 write structure in CELL formatted file         : on
 write BibTeX reference list                    : on
 write OTFG pseudopotential files               : on
 write electrostatic potential file             : on
 write bands file                               : on
 checkpoint writing                             : both castep_bin and check files
  
 output         length unit                     : A
 output           mass unit                     : amu
 output           time unit                     : ps
 output         charge unit                     : e
 output           spin unit                     : hbar/2
 output         energy unit                     : eV
 output          force unit                     : eV/A
 output       velocity unit                     : A/ps
 output       pressure unit                     : GPa
 output     inv_length unit                     : 1/A
 output      frequency unit                     : cm-1
 output force constant unit                     : eV/A**2
 output         volume unit                     : A**3
 output   IR intensity unit                     : (D/A)**2/amu
 output         dipole unit                     : D
 output         efield unit                     : eV/A/e
 output        entropy unit                     : J/mol/K
  
 wavefunctions paging                           : none
 random number generator seed                   : randomised (165417895)
 data distribution                              : optimal for this architecture
 optimization strategy                          : minimize memory(---)

 *********************** Exchange-Correlation Parameters ***********************
  
 using functional                               : Perdew Burke Ernzerhof
 relativistic treatment                         : Koelling-Harmon
 DFT+D: Semi-empirical dispersion correction    : off

 ************************* Pseudopotential Parameters **************************
  
 pseudopotential representation                 : reciprocal space
 <beta|phi> representation                      : reciprocal space
 spin-orbit coupling                            : off

 **************************** Basis Set Parameters *****************************
  
 plane wave basis set cut-off                   :  1200.0000   eV
 size of standard grid                          :     2.0000
 size of   fine   gmax                          :    35.4943   1/A
 finite basis set correction                    : automatic
 number of sample energies                      :          3
           sample  spacing                      :     5.0000   eV

 **************************** Electronic Parameters ****************************
  
 number of  electrons                           :  24.00    
 net charge of system                           :  0.000    
 treating system as non-spin-polarized
 number of bands                                :         12

 ********************* Electronic Minimization Parameters **********************
  
 Method: Treating system as non-metallic,
         and number of  SD  steps               :          1
         and number of  CG  steps               :          4
  
 total energy / atom convergence tol.           : 0.1000E-10   eV
 eigen-energy convergence tolerance             : 0.2000E-10   eV
 max force / atom convergence tol.              : ignored
 convergence tolerance window                   :          3   cycles
 max. number of SCF cycles                      :        100
 periodic dipole correction                     : NONE

 ************************** Density Mixing Parameters **************************
  
 density-mixing scheme                          : Broyden
 max. length of mixing history                  :         20
 charge density mixing amplitude                : 0.8000    
 cut-off energy for mixing                      :  1200.       eV

 *********************** Population Analysis Parameters ************************
  
 Population analysis with cutoff                :  3.000       A
 Population analysis output                     : summary and pdos components

 ********************** Geometry Optimization Parameters ***********************
  
 optimization method                            : LBFGS
 max. no. of LBFGS updates                      : unbounded
 variable cell method                           : fixed basis quality
 max. number of steps                           :         60
 estimated bulk modulus                         :  500.0       GPa
 estimated <frequency>                          :  1668.       cm-1
 geom line minimiser                            : on
 with line minimiser tolerance                  :     0.4000
 total energy convergence tolerance             : 0.1000E-08   eV/atom
        max ionic |force| tolerance             : 0.1000E-03   eV/A
 max ionic |displacement| tolerance             : 0.1000E-03   A
   max |stress component| tolerance             : 0.1000E-03   GPa
 convergence tolerance window                   :          2   steps
 backup results every                           :      14400   seconds
 write geom trajectory file                     : on

 *******************************************************************************
  

                           -------------------------------
                                      Unit Cell
                           -------------------------------
        Real Lattice(A)                      Reciprocal Lattice(1/A)
     4.9012192     0.0000000    -0.0215722        1.288600938   0.000000000   1.507977944
     0.0000000     2.6841142     0.0000000        0.000000000   2.340878569   0.000000000
    -3.2681145     0.0000000     2.7926771        0.009953865   0.000000000   2.261527372

                       Lattice parameters(A)       Cell Angles
                    a =      4.901267          alpha =   90.000000
                    b =      2.684114          beta  =  139.737549
                    c =      4.298793          gamma =   90.000000

                       Current cell volume =            36.549642       A**3
                                   density =             0.661855   AMU/A**3
                                           =             1.099036     g/cm^3

                           -------------------------------
                                     Cell Contents
                           -------------------------------
                         Total number of ions in cell =   24
                      Total number of species in cell =    1
                        Max number of any one species =   24

            xxxxxxxxxxxxxxxxxxxxxxxxxxxxxxxxxxxxxxxxxxxxxxxxxxxxxxxxxxxx
            x  Element    Atom        Fractional coordinates of atoms  x
            x            Number           u          v          w      x
            x----------------------------------------------------------x
            x  H            1         0.185105  -0.090721   0.252016   x 
            x  H            2         0.349443   0.120652   0.250669   x 
            x  H            3         0.500000   0.130794   0.750000   x 
            x  H            4         0.500000   0.422983   0.750000   x 
            x  H            5         0.814895  -0.090721   0.247984   x 
            x  H            6         0.650557   0.120652   0.249331   x 
            x  H            7         0.685105   0.409279   0.252016   x 
            x  H            8         0.849443   0.620652   0.250669   x 
            x  H            9         0.000000   0.630794   0.750000   x 
            x  H           10         0.000000   0.922983   0.750000   x 
            x  H           11         0.314895   0.409279   0.247984   x 
            x  H           12         0.150557   0.620652   0.249331   x 
            x  H           13         0.314895   0.590721   0.747984   x 
            x  H           14         0.150557   0.379348   0.749331   x 
            x  H           15         0.000000   0.369206   0.250000   x 
            x  H           16         0.000000   0.077017   0.250000   x 
            x  H           17         0.685105   0.590721   0.752016   x 
            x  H           18         0.849443   0.379348   0.750669   x 
            x  H           19         0.814895   1.090721   0.747984   x 
            x  H           20         0.650557   0.879348   0.749331   x 
            x  H           21         0.500000   0.869206   0.250000   x 
            x  H           22         0.500000   0.577017   0.250000   x 
            x  H           23         0.185105   1.090721   0.752016   x 
            x  H           24         0.349443   0.879348   0.750669   x 
            xxxxxxxxxxxxxxxxxxxxxxxxxxxxxxxxxxxxxxxxxxxxxxxxxxxxxxxxxxxx


                         No user defined ionic velocities

                           -------------------------------
                                   Details of Species
                           -------------------------------

                               Mass of species in AMU
                                    H    1.0079400

                          Electric Quadrupole Moment (Barn)
                                    H    0.0028600 Isotope  2

                          Files used for pseudopotentials:
                                    H 0|0.7|2|6|8|10L(qc=10)

                           -------------------------------
                              k-Points For BZ Sampling
                           -------------------------------
                       MP grid size for SCF calculation is  2  2  2
                            with an offset of   0.000  0.000  0.000
                       Number of kpoints used =             2

                           -------------------------------
                               Symmetry and Constraints
                           -------------------------------

                      Cell is a supercell containing 2 primitive cells
                      Maximum deviation from symmetry = 0.734659E-14     ANG

                      Number of symmetry operations   =           8
                      Number of ionic constraints     =           3
                      Point group of crystal =     5: C2h, 2/m, 2/m
                      Space group of crystal =    15: C2/c, -C 2yc

             Set iprint > 1 for details on symmetry rotations/translations

                         Centre of mass is constrained
             Set iprint > 1 for details of linear ionic constraints

                         Number of cell constraints= 2
                         Cell constraints are:  1 2 3 0 5 0

                         External pressure/stress (GPa)
                        270.00000   0.00000   0.00000
                                  270.00000   0.00000
                                            270.00000
  
+---------------- MEMORY AND SCRATCH DISK ESTIMATES PER PROCESS --------------+
|                                                     Memory          Disk    |
| Baseline code, static data and system overhead      381.0 MB         0.0 MB |
| BLAS internal memory storage                          0.0 MB         0.0 MB |
| Model and support data                               10.1 MB         0.0 MB |
| Electronic energy minimisation requirements           6.4 MB         0.3 MB |
| Force calculation requirements                        3.2 MB         0.0 MB |
| Stress calculation requirements                       4.0 MB         0.0 MB |
|                                               ----------------------------- |
| Approx. total storage required per process          397.5 MB         0.3 MB |
|                                                                             |
| Requirements will fluctuate during execution and may exceed these estimates |
+-----------------------------------------------------------------------------+
Calculating finite basis set correction with  3 cut-off energies.
Calculating total energy with cut-off of 1190.000 eV.
------------------------------------------------------------------------ <-- SCF
SCF loop      Energy                           Energy gain       Timer   <-- SCF
                                               per atom          (sec)   <-- SCF
------------------------------------------------------------------------ <-- SCF
Initial   5.14711959E+002                                          9.86  <-- SCF
      1  -2.95595715E+002                    3.37628197E+001      12.48  <-- SCF
      2  -3.45774850E+002                    2.09079728E+000      14.77  <-- SCF
      3  -3.45818677E+002                    1.82614874E-003      18.39  <-- SCF
      4  -3.45811309E+002                   -3.06990629E-004      22.16  <-- SCF
      5  -3.45811714E+002                    1.68540000E-005      26.56  <-- SCF
      6  -3.45811743E+002                    1.19388222E-006      30.05  <-- SCF
      7  -3.45811743E+002                    9.63897188E-009      33.94  <-- SCF
      8  -3.45811743E+002                    2.41385565E-010      37.51  <-- SCF
      9  -3.45811743E+002                    1.35907902E-011      40.73  <-- SCF
     10  -3.45811743E+002                    6.96860315E-013      43.69  <-- SCF
     11  -3.45811743E+002                    1.22856876E-013      47.27  <-- SCF
------------------------------------------------------------------------ <-- SCF
 
Final energy =  -345.8117427563     eV
(energy not corrected for finite basis set)
 
Calculating total energy with cut-off of 1195.000 eV.
------------------------------------------------------------------------ <-- SCF
SCF loop      Energy                           Energy gain       Timer   <-- SCF
                                               per atom          (sec)   <-- SCF
------------------------------------------------------------------------ <-- SCF
Initial  -3.45811743E+002                                         50.60  <-- SCF
      1  -3.45813535E+002                    7.46691392E-005      53.13  <-- SCF
      2  -3.45813535E+002                    2.10141652E-010      57.19  <-- SCF
      3  -3.45813536E+002                    5.51662641E-008      61.19  <-- SCF
      4  -3.45813536E+002                    2.13209046E-009      64.96  <-- SCF
      5  -3.45813536E+002                    8.44892781E-012      67.66  <-- SCF
      6  -3.45813536E+002                    4.00795383E-013      70.72  <-- SCF
------------------------------------------------------------------------ <-- SCF
 
Final energy =  -345.8135361961     eV
(energy not corrected for finite basis set)
 
Calculating total energy with cut-off of 1200.000 eV.
------------------------------------------------------------------------ <-- SCF
SCF loop      Energy                           Energy gain       Timer   <-- SCF
                                               per atom          (sec)   <-- SCF
------------------------------------------------------------------------ <-- SCF
Initial  -3.45813536E+002                                         74.36  <-- SCF
      1  -3.45815698E+002                    9.00826603E-005      76.10  <-- SCF
      2  -3.45815698E+002                    1.76547345E-010      80.11  <-- SCF
      3  -3.45815700E+002                    5.76500978E-008      84.30  <-- SCF
      4  -3.45815700E+002                    1.91886127E-009      88.63  <-- SCF
      5  -3.45815700E+002                    8.86180747E-012      92.11  <-- SCF
      6  -3.45815700E+002                    4.20935855E-013      95.14  <-- SCF
------------------------------------------------------------------------ <-- SCF
 
Final energy =  -345.8156996140     eV
(energy not corrected for finite basis set)
 
 For future reference: finite basis dEtot/dlog(Ecut) =      -0.437912eV
 Total energy corrected for finite basis set =    -345.815319 eV
 
+---------------- MEMORY AND SCRATCH DISK ESTIMATES PER PROCESS --------------+
|                                                     Memory          Disk    |
| Model and support data                               20.0 MB         0.0 MB |
| Electronic energy minimisation requirements           6.4 MB         0.3 MB |
| Geometry minimisation requirements                    7.0 MB         0.3 MB |
|                                               ----------------------------- |
| Approx. total storage required per process           33.4 MB         0.6 MB |
|                                                                             |
| Requirements will fluctuate during execution and may exceed these estimates |
+-----------------------------------------------------------------------------+
 

 ******************************** Symmetrised Forces ********************************
 *                                                                                  *
 *                           Cartesian components (eV/A)                            *
 * -------------------------------------------------------------------------------- *
 *                         x                    y                    z              *
 *                                                                                  *
 * H               1      0.00000             -0.00000             -0.00000         *
 * H               2     -0.00000              0.00000             -0.00000         *
 * H               3     -0.00000              0.00000              0.00000         *
 * H               4      0.00000             -0.00000             -0.00000         *
 * H               5     -0.00000             -0.00000              0.00000         *
 * H               6      0.00000              0.00000              0.00000         *
 * H               7      0.00000             -0.00000             -0.00000         *
 * H               8     -0.00000              0.00000             -0.00000         *
 * H               9      0.00000              0.00000              0.00000         *
 * H              10      0.00000             -0.00000             -0.00000         *
 * H              11     -0.00000             -0.00000              0.00000         *
 * H              12      0.00000              0.00000              0.00000         *
 * H              13     -0.00000              0.00000              0.00000         *
 * H              14      0.00000             -0.00000              0.00000         *
 * H              15      0.00000             -0.00000              0.00000         *
 * H              16     -0.00000              0.00000              0.00000         *
 * H              17      0.00000              0.00000             -0.00000         *
 * H              18     -0.00000             -0.00000             -0.00000         *
 * H              19     -0.00000              0.00000              0.00000         *
 * H              20      0.00000             -0.00000              0.00000         *
 * H              21      0.00000             -0.00000             -0.00000         *
 * H              22      0.00000              0.00000              0.00000         *
 * H              23      0.00000              0.00000             -0.00000         *
 * H              24     -0.00000             -0.00000             -0.00000         *
 *                                                                                  *
 ************************************************************************************

 *********** Symmetrised Stress Tensor ***********
 *                                               *
 *          Cartesian components (GPa)           *
 * --------------------------------------------- *
 *             x             y             z     *
 *                                               *
 *  x   -270.096927      0.000000     -0.000067  *
 *  y      0.000000   -270.096958      0.000000  *
 *  z     -0.000067      0.000000   -270.097001  *
 *                                               *
 *  Pressure:  270.0970                          *
 *                                               *
 *************************************************
 LBFGS: finished iteration     0 with enthalpy= -2.84221590E+002 eV
  
 +-----------+-----------------+-----------------+------------+-----+ <-- LBFGS
 | Parameter |      value      |    tolerance    |    units   | OK? | <-- LBFGS
 +-----------+-----------------+-----------------+------------+-----+ <-- LBFGS
 |  dE/ion   |   0.000000E+000 |   1.000000E-009 |         eV | No  | <-- LBFGS
 |  |F|max   |   2.123829E-006 |   1.000000E-004 |       eV/A | Yes | <-- LBFGS
 |  |dR|max  |   0.000000E+000 |   1.000000E-004 |          A | No  | <-- LBFGS
 |   Smax    |   9.700083E-002 |   1.000000E-004 |        GPa | No  | <-- LBFGS
 +-----------+-----------------+-----------------+------------+-----+ <-- LBFGS
  

================================================================================
 Starting LBFGS iteration          1 ...
================================================================================
  
 +------------+-------------+-------------+-----------------+ <-- min LBFGS
 |    Step    |   lambda    |   F.delta'  |    enthalpy     | <-- min LBFGS
 +------------+-------------+-------------+-----------------+ <-- min LBFGS
 |  previous  |    0.000000 |    0.001408 |     -284.221590 | <-- min LBFGS
 +------------+-------------+-------------+-----------------+ <-- min LBFGS
  

--------------------------------------------------------------------------------
 LBFGS: starting iteration         1 with trial guess (lambda=  1.000000)
--------------------------------------------------------------------------------

                           -------------------------------
                                      Unit Cell
                           -------------------------------
        Real Lattice(A)              Reciprocal Lattice(1/A)
     4.9015359     0.0000000    -0.0215734        1.288517609   0.000000000   1.507880377
     0.0000000     2.6842877     0.0000000        0.000000000   2.340727268   0.000000000
    -3.2683256     0.0000000     2.7928575        0.009953121   0.000000000   2.261381134

                       Lattice parameters(A)       Cell Angles
                    a =      4.901583          alpha =   90.000000
                    b =      2.684288          beta  =  139.737545
                    c =      4.299070          gamma =   90.000000

                Current cell volume =            36.556731 A**3

                           -------------------------------
                                     Cell Contents
                           -------------------------------

            xxxxxxxxxxxxxxxxxxxxxxxxxxxxxxxxxxxxxxxxxxxxxxxxxxxxxxxxxxxxxxxxx
            x  Element         Atom        Fractional coordinates of atoms  x
            x                 Number           u          v          w      x
            x---------------------------------------------------------------x
            x  H                 1         0.185105  -0.090721   0.252016   x
            x  H                 2         0.349443   0.120652   0.250669   x
            x  H                 3         0.500000   0.130794   0.750000   x
            x  H                 4         0.500000   0.422983   0.750000   x
            x  H                 5         0.814895  -0.090721   0.247984   x
            x  H                 6         0.650557   0.120652   0.249331   x
            x  H                 7         0.685105   0.409279   0.252016   x
            x  H                 8         0.849443   0.620652   0.250669   x
            x  H                 9         0.000000   0.630794   0.750000   x
            x  H                10        -0.000000   0.922983   0.750000   x
            x  H                11         0.314895   0.409279   0.247984   x
            x  H                12         0.150557   0.620652   0.249331   x
            x  H                13         0.314895   0.590721   0.747984   x
            x  H                14         0.150557   0.379348   0.749331   x
            x  H                15         0.000000   0.369206   0.250000   x
            x  H                16         0.000000   0.077017   0.250000   x
            x  H                17         0.685105   0.590721   0.752016   x
            x  H                18         0.849443   0.379348   0.750669   x
            x  H                19         0.814895   1.090721   0.747984   x
            x  H                20         0.650557   0.879348   0.749331   x
            x  H                21         0.500000   0.869206   0.250000   x
            x  H                22         0.500000   0.577017   0.250000   x
            x  H                23         0.185105   1.090721   0.752016   x
            x  H                24         0.349443   0.879348   0.750669   x
            xxxxxxxxxxxxxxxxxxxxxxxxxxxxxxxxxxxxxxxxxxxxxxxxxxxxxxxxxxxxxxxxx


------------------------------------------------------------------------ <-- SCF
SCF loop      Energy                           Energy gain       Timer   <-- SCF
                                               per atom          (sec)   <-- SCF
------------------------------------------------------------------------ <-- SCF
Initial  -3.45827589E+002                                        104.73  <-- SCF
      1  -3.45827610E+002                    8.81453974E-007     106.91  <-- SCF
      2  -3.45827610E+002                    5.49029254E-011     110.99  <-- SCF
      3  -3.45827610E+002                    2.60631800E-010     114.29  <-- SCF
      4  -3.45827610E+002                    1.81586491E-011     117.34  <-- SCF
      5  -3.45827610E+002                    4.77329175E-013     120.56  <-- SCF
      6  -3.45827610E+002                    1.42997348E-013     123.73  <-- SCF
------------------------------------------------------------------------ <-- SCF
 
Final energy =  -345.8276099112     eV
(energy not corrected for finite basis set)
 

 ******************************** Symmetrised Forces ********************************
 *                                                                                  *
 *                           Cartesian components (eV/A)                            *
 * -------------------------------------------------------------------------------- *
 *                         x                    y                    z              *
 *                                                                                  *
 * H               1     -0.00017             -0.00059             -0.00002         *
 * H               2     -0.00019              0.00055             -0.00002         *
 * H               3      0.00000              0.00057             -0.00000         *
 * H               4      0.00000             -0.00063             -0.00000         *
 * H               5      0.00017             -0.00059              0.00002         *
 * H               6      0.00019              0.00055              0.00002         *
 * H               7     -0.00017             -0.00059             -0.00002         *
 * H               8     -0.00019              0.00055             -0.00002         *
 * H               9      0.00000              0.00057             -0.00000         *
 * H              10      0.00000             -0.00063             -0.00000         *
 * H              11      0.00017             -0.00059              0.00002         *
 * H              12      0.00019              0.00055              0.00002         *
 * H              13      0.00017              0.00059              0.00002         *
 * H              14      0.00019             -0.00055              0.00002         *
 * H              15      0.00000             -0.00057             -0.00000         *
 * H              16      0.00000              0.00063             -0.00000         *
 * H              17     -0.00017              0.00059             -0.00002         *
 * H              18     -0.00019             -0.00055             -0.00002         *
 * H              19      0.00017              0.00059              0.00002         *
 * H              20      0.00019             -0.00055              0.00002         *
 * H              21      0.00000             -0.00057             -0.00000         *
 * H              22      0.00000              0.00063             -0.00000         *
 * H              23     -0.00017              0.00059             -0.00002         *
 * H              24     -0.00019             -0.00055             -0.00002         *
 *                                                                                  *
 ************************************************************************************

 *********** Symmetrised Stress Tensor ***********
 *                                               *
 *          Cartesian components (GPa)           *
 * --------------------------------------------- *
 *             x             y             z     *
 *                                               *
 *  x   -269.956850      0.000000      0.000006  *
 *  y      0.000000   -269.927722      0.000000  *
 *  z      0.000006      0.000000   -269.975263  *
 *                                               *
 *  Pressure:  269.9533                          *
 *                                               *
 *************************************************
  
 +------------+-------------+-------------+-----------------+ <-- min LBFGS
 |    Step    |   lambda    |   F.delta'  |    enthalpy     | <-- min LBFGS
 +------------+-------------+-------------+-----------------+ <-- min LBFGS
 |  previous  |    0.000000 |    0.001408 |     -284.221590 | <-- min LBFGS
 | trial step |    1.000000 |   -0.000678 |     -284.221569 | <-- min LBFGS
 +------------+-------------+-------------+-----------------+ <-- min LBFGS
  
 LBFGS: finished iteration     1 with enthalpy= -2.84221569E+002 eV
  
 +-----------+-----------------+-----------------+------------+-----+ <-- LBFGS
 | Parameter |      value      |    tolerance    |    units   | OK? | <-- LBFGS
 +-----------+-----------------+-----------------+------------+-----+ <-- LBFGS
 |  dE/ion   |   8.574195E-007 |   1.000000E-009 |         eV | No  | <-- LBFGS
 |  |F|max   |   6.316529E-004 |   1.000000E-004 |       eV/A | No  | <-- LBFGS
 |  |dR|max  |   2.060034E-007 |   1.000000E-004 |          A | Yes | <-- LBFGS
 |   Smax    |   7.227759E-002 |   1.000000E-004 |        GPa | No  | <-- LBFGS
 +-----------+-----------------+-----------------+------------+-----+ <-- LBFGS
  

================================================================================
 Starting LBFGS iteration          2 ...
================================================================================
  
 +------------+-------------+-------------+-----------------+ <-- min LBFGS
 |    Step    |   lambda    |   F.delta'  |    enthalpy     | <-- min LBFGS
 +------------+-------------+-------------+-----------------+ <-- min LBFGS
 |  previous  |    0.000000 |    0.000548 |     -284.221569 | <-- min LBFGS
 +------------+-------------+-------------+-----------------+ <-- min LBFGS
  

--------------------------------------------------------------------------------
 LBFGS: starting iteration         2 with trial guess (lambda=  1.000000)
--------------------------------------------------------------------------------

                           -------------------------------
                                      Unit Cell
                           -------------------------------
        Real Lattice(A)              Reciprocal Lattice(1/A)
     4.9014746     0.0000000    -0.0215733        1.288533731   0.000000000   1.507886743
     0.0000000     2.6842189     0.0000000        0.000000000   2.340787238   0.000000000
    -3.2682847     0.0000000     2.7928457        0.009953242   0.000000000   2.261390685

                       Lattice parameters(A)       Cell Angles
                    a =      4.901522          alpha =   90.000000
                    b =      2.684219          beta  =  139.737313
                    c =      4.299032          gamma =   90.000000

                Current cell volume =            36.555182 A**3

                           -------------------------------
                                     Cell Contents
                           -------------------------------

            xxxxxxxxxxxxxxxxxxxxxxxxxxxxxxxxxxxxxxxxxxxxxxxxxxxxxxxxxxxxxxxxx
            x  Element         Atom        Fractional coordinates of atoms  x
            x                 Number           u          v          w      x
            x---------------------------------------------------------------x
            x  H                 1         0.185103  -0.090735   0.252015   x
            x  H                 2         0.349440   0.120666   0.250669   x
            x  H                 3         0.500000   0.130808   0.750000   x
            x  H                 4         0.500000   0.422968   0.750000   x
            x  H                 5         0.814897  -0.090735   0.247985   x
            x  H                 6         0.650560   0.120666   0.249331   x
            x  H                 7         0.685103   0.409265   0.252015   x
            x  H                 8         0.849440   0.620666   0.250669   x
            x  H                 9         0.000000   0.630808   0.750000   x
            x  H                10        -0.000000   0.922968   0.750000   x
            x  H                11         0.314897   0.409265   0.247985   x
            x  H                12         0.150560   0.620666   0.249331   x
            x  H                13         0.314897   0.590735   0.747985   x
            x  H                14         0.150560   0.379334   0.749331   x
            x  H                15         0.000000   0.369192   0.250000   x
            x  H                16         0.000000   0.077032   0.250000   x
            x  H                17         0.685103   0.590735   0.752015   x
            x  H                18         0.849440   0.379334   0.750669   x
            x  H                19         0.814897   1.090735   0.747985   x
            x  H                20         0.650560   0.879334   0.749331   x
            x  H                21         0.500000   0.869192   0.250000   x
            x  H                22         0.500000   0.577032   0.250000   x
            x  H                23         0.185103   1.090735   0.752015   x
            x  H                24         0.349440   0.879334   0.750669   x
            xxxxxxxxxxxxxxxxxxxxxxxxxxxxxxxxxxxxxxxxxxxxxxxxxxxxxxxxxxxxxxxxx


------------------------------------------------------------------------ <-- SCF
SCF loop      Energy                           Energy gain       Timer   <-- SCF
                                               per atom          (sec)   <-- SCF
------------------------------------------------------------------------ <-- SCF
Initial  -3.45825009E+002                                        133.25  <-- SCF
      1  -3.45825013E+002                    1.61696461E-007     135.37  <-- SCF
      2  -3.45825013E+002                    4.72982862E-010     140.68  <-- SCF
      3  -3.45825013E+002                   -7.40205228E-009     144.22  <-- SCF
      4  -3.45825013E+002                   -3.17989849E-010     147.90  <-- SCF
      5  -3.45825013E+002                    4.99483694E-013     152.00  <-- SCF
      6  -3.45825013E+002                    7.04916504E-014     154.83  <-- SCF
------------------------------------------------------------------------ <-- SCF
 
Final energy =  -345.8250130398     eV
(energy not corrected for finite basis set)
 

 ******************************** Symmetrised Forces ********************************
 *                                                                                  *
 *                           Cartesian components (eV/A)                            *
 * -------------------------------------------------------------------------------- *
 *                         x                    y                    z              *
 *                                                                                  *
 * H               1      0.00026              0.00050              0.00003         *
 * H               2      0.00021             -0.00078              0.00001         *
 * H               3      0.00000             -0.00111              0.00000         *
 * H               4     -0.00000              0.00056             -0.00000         *
 * H               5     -0.00026              0.00050             -0.00003         *
 * H               6     -0.00021             -0.00078             -0.00001         *
 * H               7      0.00026              0.00050              0.00003         *
 * H               8      0.00021             -0.00078              0.00001         *
 * H               9      0.00000             -0.00111              0.00000         *
 * H              10     -0.00000              0.00056             -0.00000         *
 * H              11     -0.00026              0.00050             -0.00003         *
 * H              12     -0.00021             -0.00078             -0.00001         *
 * H              13     -0.00026             -0.00050             -0.00003         *
 * H              14     -0.00021              0.00078             -0.00001         *
 * H              15      0.00000              0.00111             -0.00000         *
 * H              16      0.00000             -0.00056              0.00000         *
 * H              17      0.00026             -0.00050              0.00003         *
 * H              18      0.00021              0.00078              0.00001         *
 * H              19     -0.00026             -0.00050             -0.00003         *
 * H              20     -0.00021              0.00078             -0.00001         *
 * H              21     -0.00000              0.00111              0.00000         *
 * H              22      0.00000             -0.00056              0.00000         *
 * H              23      0.00026             -0.00050              0.00003         *
 * H              24      0.00021              0.00078              0.00001         *
 *                                                                                  *
 ************************************************************************************

 *********** Symmetrised Stress Tensor ***********
 *                                               *
 *          Cartesian components (GPa)           *
 * --------------------------------------------- *
 *             x             y             z     *
 *                                               *
 *  x   -269.997855      0.000000      0.000454  *
 *  y      0.000000   -270.024155      0.000000  *
 *  z      0.000454      0.000000   -269.978400  *
 *                                               *
 *  Pressure:  270.0001                          *
 *                                               *
 *************************************************
  
 +------------+-------------+-------------+-----------------+ <-- min LBFGS
 |    Step    |   lambda    |   F.delta'  |    enthalpy     | <-- min LBFGS
 +------------+-------------+-------------+-----------------+ <-- min LBFGS
 |  previous  |    0.000000 |    0.000548 |     -284.221569 | <-- min LBFGS
 | trial step |    1.000000 |   -0.000384 |     -284.221569 | <-- min LBFGS
 +------------+-------------+-------------+-----------------+ <-- min LBFGS
  

--------------------------------------------------------------------------------
 LBFGS: improving iteration         2 with line minimization (lambda=  0.587996)
--------------------------------------------------------------------------------

                           -------------------------------
                                      Unit Cell
                           -------------------------------
        Real Lattice(A)              Reciprocal Lattice(1/A)
     4.9014999     0.0000000    -0.0215733        1.288527089   0.000000000   1.507884120
     0.0000000     2.6842472     0.0000000        0.000000000   2.340762530   0.000000000
    -3.2683015     0.0000000     2.7928506        0.009953192   0.000000000   2.261386750

                       Lattice parameters(A)       Cell Angles
                    a =      4.901547          alpha =   90.000000
                    b =      2.684247          beta  =  139.737408
                    c =      4.299048          gamma =   90.000000

                Current cell volume =            36.555820 A**3

                           -------------------------------
                                     Cell Contents
                           -------------------------------

            xxxxxxxxxxxxxxxxxxxxxxxxxxxxxxxxxxxxxxxxxxxxxxxxxxxxxxxxxxxxxxxxx
            x  Element         Atom        Fractional coordinates of atoms  x
            x                 Number           u          v          w      x
            x---------------------------------------------------------------x
            x  H                 1         0.185104  -0.090729   0.252016   x
            x  H                 2         0.349441   0.120660   0.250669   x
            x  H                 3         0.500000   0.130802   0.750000   x
            x  H                 4         0.500000   0.422974   0.750000   x
            x  H                 5         0.814896  -0.090729   0.247984   x
            x  H                 6         0.650559   0.120660   0.249331   x
            x  H                 7         0.685104   0.409271   0.252016   x
            x  H                 8         0.849441   0.620660   0.250669   x
            x  H                 9         0.000000   0.630802   0.750000   x
            x  H                10        -0.000000   0.922974   0.750000   x
            x  H                11         0.314896   0.409271   0.247984   x
            x  H                12         0.150559   0.620660   0.249331   x
            x  H                13         0.314896   0.590729   0.747984   x
            x  H                14         0.150559   0.379340   0.749331   x
            x  H                15         0.000000   0.369198   0.250000   x
            x  H                16         0.000000   0.077026   0.250000   x
            x  H                17         0.685104   0.590729   0.752016   x
            x  H                18         0.849441   0.379340   0.750669   x
            x  H                19         0.814896   1.090729   0.747984   x
            x  H                20         0.650559   0.879340   0.749331   x
            x  H                21         0.500000   0.869198   0.250000   x
            x  H                22         0.500000   0.577026   0.250000   x
            x  H                23         0.185104   1.090729   0.752016   x
            x  H                24         0.349441   0.879340   0.750669   x
            xxxxxxxxxxxxxxxxxxxxxxxxxxxxxxxxxxxxxxxxxxxxxxxxxxxxxxxxxxxxxxxxx


------------------------------------------------------------------------ <-- SCF
SCF loop      Energy                           Energy gain       Timer   <-- SCF
                                               per atom          (sec)   <-- SCF
------------------------------------------------------------------------ <-- SCF
Initial  -3.45826083E+002                                        163.73  <-- SCF
      1  -3.45826083E+002                    2.74535633E-008     166.04  <-- SCF
      2  -3.45826083E+002                    7.97039020E-011     169.90  <-- SCF
      3  -3.45826083E+002                   -1.25565166E-009     173.04  <-- SCF
      4  -3.45826083E+002                   -5.43208658E-011     175.38  <-- SCF
      5  -3.45826083E+002                    3.34331827E-013     179.12  <-- SCF
      6  -3.45826083E+002                    2.69882319E-013     182.35  <-- SCF
------------------------------------------------------------------------ <-- SCF
 
Final energy =  -345.8260831875     eV
(energy not corrected for finite basis set)
 

 ******************************** Symmetrised Forces ********************************
 *                                                                                  *
 *                           Cartesian components (eV/A)                            *
 * -------------------------------------------------------------------------------- *
 *                         x                    y                    z              *
 *                                                                                  *
 * H               1      0.00008              0.00005              0.00001         *
 * H               2      0.00005             -0.00023             -0.00000         *
 * H               3     -0.00000             -0.00042             -0.00000         *
 * H               4     -0.00000              0.00007             -0.00000         *
 * H               5     -0.00008              0.00005             -0.00001         *
 * H               6     -0.00005             -0.00023              0.00000         *
 * H               7      0.00008              0.00005              0.00001         *
 * H               8      0.00005             -0.00023             -0.00000         *
 * H               9     -0.00000             -0.00042             -0.00000         *
 * H              10     -0.00000              0.00007             -0.00000         *
 * H              11     -0.00008              0.00005             -0.00001         *
 * H              12     -0.00005             -0.00023              0.00000         *
 * H              13     -0.00008             -0.00005             -0.00001         *
 * H              14     -0.00005              0.00023              0.00000         *
 * H              15     -0.00000              0.00042             -0.00000         *
 * H              16     -0.00000             -0.00007             -0.00000         *
 * H              17      0.00008             -0.00005              0.00001         *
 * H              18      0.00005              0.00023             -0.00000         *
 * H              19     -0.00008             -0.00005             -0.00001         *
 * H              20     -0.00005              0.00023              0.00000         *
 * H              21     -0.00000              0.00042             -0.00000         *
 * H              22     -0.00000             -0.00007             -0.00000         *
 * H              23      0.00008             -0.00005              0.00001         *
 * H              24      0.00005              0.00023             -0.00000         *
 *                                                                                  *
 ************************************************************************************

 *********** Symmetrised Stress Tensor ***********
 *                                               *
 *          Cartesian components (GPa)           *
 * --------------------------------------------- *
 *             x             y             z     *
 *                                               *
 *  x   -269.980925      0.000000      0.000267  *
 *  y      0.000000   -269.984450      0.000000  *
 *  z      0.000267      0.000000   -269.977114  *
 *                                               *
 *  Pressure:  269.9808                          *
 *                                               *
 *************************************************
  
 +------------+-------------+-------------+-----------------+ <-- min LBFGS
 |    Step    |   lambda    |   F.delta'  |    enthalpy     | <-- min LBFGS
 +------------+-------------+-------------+-----------------+ <-- min LBFGS
 |  previous  |    0.000000 |    0.000548 |     -284.221569 | <-- min LBFGS
 | trial step |    1.000000 |   -0.000384 |     -284.221569 | <-- min LBFGS
 |  line step |    0.587996 | -4.797E-007 |     -284.221569 | <-- min LBFGS
 +------------+-------------+-------------+-----------------+ <-- min LBFGS
  
 LBFGS: finished iteration     2 with enthalpy= -2.84221569E+002 eV
  
 +-----------+-----------------+-----------------+------------+-----+ <-- LBFGS
 | Parameter |      value      |    tolerance    |    units   | OK? | <-- LBFGS
 +-----------+-----------------+-----------------+------------+-----+ <-- LBFGS
 |  dE/ion   |   1.383610E-008 |   1.000000E-009 |         eV | No  | <-- LBFGS
 |  |F|max   |   4.178428E-004 |   1.000000E-004 |       eV/A | No  | <-- LBFGS
 |  |dR|max  |   2.432887E-005 |   1.000000E-004 |          A | Yes | <-- LBFGS
 |   Smax    |   2.288632E-002 |   1.000000E-004 |        GPa | No  | <-- LBFGS
 +-----------+-----------------+-----------------+------------+-----+ <-- LBFGS
  

================================================================================
 Starting LBFGS iteration          3 ...
================================================================================
  
 +------------+-------------+-------------+-----------------+ <-- min LBFGS
 |    Step    |   lambda    |   F.delta'  |    enthalpy     | <-- min LBFGS
 +------------+-------------+-------------+-----------------+ <-- min LBFGS
 |  previous  |    0.000000 |    0.000266 |     -284.221569 | <-- min LBFGS
 +------------+-------------+-------------+-----------------+ <-- min LBFGS
  

--------------------------------------------------------------------------------
 LBFGS: starting iteration         3 with trial guess (lambda=  1.000000)
--------------------------------------------------------------------------------

                           -------------------------------
                                      Unit Cell
                           -------------------------------
        Real Lattice(A)              Reciprocal Lattice(1/A)
     4.9014181     0.0000000    -0.0215738        1.288548860   0.000000000   1.507912166
     0.0000000     2.6842054     0.0000000        0.000000000   2.340798978   0.000000000
    -3.2682475     0.0000000     2.7927997        0.009953765   0.000000000   2.261428466

                       Lattice parameters(A)       Cell Angles
                    a =      4.901466          alpha =   90.000000
                    b =      2.684205          beta  =  139.737467
                    c =      4.298973          gamma =   90.000000

                Current cell volume =            36.553967 A**3

                           -------------------------------
                                     Cell Contents
                           -------------------------------

            xxxxxxxxxxxxxxxxxxxxxxxxxxxxxxxxxxxxxxxxxxxxxxxxxxxxxxxxxxxxxxxxx
            x  Element         Atom        Fractional coordinates of atoms  x
            x                 Number           u          v          w      x
            x---------------------------------------------------------------x
            x  H                 1         0.185106  -0.090729   0.252016   x
            x  H                 2         0.349442   0.120653   0.250669   x
            x  H                 3         0.500000   0.130788   0.750000   x
            x  H                 4         0.500000   0.422975   0.750000   x
            x  H                 5         0.814894  -0.090729   0.247984   x
            x  H                 6         0.650558   0.120653   0.249331   x
            x  H                 7         0.685106   0.409271   0.252016   x
            x  H                 8         0.849442   0.620653   0.250669   x
            x  H                 9         0.000000   0.630788   0.750000   x
            x  H                10        -0.000000   0.922975   0.750000   x
            x  H                11         0.314894   0.409271   0.247984   x
            x  H                12         0.150558   0.620653   0.249331   x
            x  H                13         0.314894   0.590729   0.747984   x
            x  H                14         0.150558   0.379347   0.749331   x
            x  H                15         0.000000   0.369212   0.250000   x
            x  H                16         0.000000   0.077025   0.250000   x
            x  H                17         0.685106   0.590729   0.752016   x
            x  H                18         0.849442   0.379347   0.750669   x
            x  H                19         0.814894   1.090729   0.747984   x
            x  H                20         0.650558   0.879347   0.749331   x
            x  H                21         0.500000   0.869212   0.250000   x
            x  H                22         0.500000   0.577025   0.250000   x
            x  H                23         0.185106   1.090729   0.752016   x
            x  H                24         0.349442   0.879347   0.750669   x
            xxxxxxxxxxxxxxxxxxxxxxxxxxxxxxxxxxxxxxxxxxxxxxxxxxxxxxxxxxxxxxxxx


------------------------------------------------------------------------ <-- SCF
SCF loop      Energy                           Energy gain       Timer   <-- SCF
                                               per atom          (sec)   <-- SCF
------------------------------------------------------------------------ <-- SCF
Initial  -3.45822974E+002                                        191.41  <-- SCF
      1  -3.45822975E+002                    3.92957477E-008     193.42  <-- SCF
      2  -3.45822975E+002                    1.53484491E-010     196.76  <-- SCF
      3  -3.45822975E+002                   -3.61651974E-009     200.76  <-- SCF
      4  -3.45822975E+002                   -5.32171679E-011     203.36  <-- SCF
      5  -3.45822975E+002                    5.71989391E-013     206.45  <-- SCF
      6  -3.45822975E+002                    1.00702358E-013     209.54  <-- SCF
------------------------------------------------------------------------ <-- SCF
 
Final energy =  -345.8229746122     eV
(energy not corrected for finite basis set)
 

 ******************************** Symmetrised Forces ********************************
 *                                                                                  *
 *                           Cartesian components (eV/A)                            *
 * -------------------------------------------------------------------------------- *
 *                         x                    y                    z              *
 *                                                                                  *
 * H               1     -0.00019              0.00010             -0.00002         *
 * H               2     -0.00010              0.00006             -0.00004         *
 * H               3      0.00000              0.00054              0.00000         *
 * H               4      0.00000             -0.00020              0.00000         *
 * H               5      0.00019              0.00010              0.00002         *
 * H               6      0.00010              0.00006              0.00004         *
 * H               7     -0.00019              0.00010             -0.00002         *
 * H               8     -0.00010              0.00006             -0.00004         *
 * H               9      0.00000              0.00054              0.00000         *
 * H              10      0.00000             -0.00020             -0.00000         *
 * H              11      0.00019              0.00010              0.00002         *
 * H              12      0.00010              0.00006              0.00004         *
 * H              13      0.00019             -0.00010              0.00002         *
 * H              14      0.00010             -0.00006              0.00004         *
 * H              15      0.00000             -0.00054              0.00000         *
 * H              16      0.00000              0.00020              0.00000         *
 * H              17     -0.00019             -0.00010             -0.00002         *
 * H              18     -0.00010             -0.00006             -0.00004         *
 * H              19      0.00019             -0.00010              0.00002         *
 * H              20      0.00010             -0.00006              0.00004         *
 * H              21      0.00000             -0.00054             -0.00000         *
 * H              22      0.00000              0.00020              0.00000         *
 * H              23     -0.00019             -0.00010             -0.00002         *
 * H              24     -0.00010             -0.00006             -0.00004         *
 *                                                                                  *
 ************************************************************************************

 *********** Symmetrised Stress Tensor ***********
 *                                               *
 *          Cartesian components (GPa)           *
 * --------------------------------------------- *
 *             x             y             z     *
 *                                               *
 *  x   -270.013570      0.000000      0.000207  *
 *  y      0.000000   -270.013194      0.000000  *
 *  z      0.000207      0.000000   -270.014320  *
 *                                               *
 *  Pressure:  270.0137                          *
 *                                               *
 *************************************************
  
 +------------+-------------+-------------+-----------------+ <-- min LBFGS
 |    Step    |   lambda    |   F.delta'  |    enthalpy     | <-- min LBFGS
 +------------+-------------+-------------+-----------------+ <-- min LBFGS
 |  previous  |    0.000000 |    0.000266 |     -284.221569 | <-- min LBFGS
 | trial step |    1.000000 |   -0.000212 |     -284.221569 | <-- min LBFGS
 +------------+-------------+-------------+-----------------+ <-- min LBFGS
  

--------------------------------------------------------------------------------
 LBFGS: improving iteration         3 with line minimization (lambda=  0.556355)
--------------------------------------------------------------------------------

                           -------------------------------
                                      Unit Cell
                           -------------------------------
        Real Lattice(A)              Reciprocal Lattice(1/A)
     4.9014544     0.0000000    -0.0215736        1.288539201   0.000000000   1.507899723
     0.0000000     2.6842240     0.0000000        0.000000000   2.340782808   0.000000000
    -3.2682715     0.0000000     2.7928223        0.009953511   0.000000000   2.261409959

                       Lattice parameters(A)       Cell Angles
                    a =      4.901502          alpha =   90.000000
                    b =      2.684224          beta  =  139.737441
                    c =      4.299006          gamma =   90.000000

                Current cell volume =            36.554789 A**3

                           -------------------------------
                                     Cell Contents
                           -------------------------------

            xxxxxxxxxxxxxxxxxxxxxxxxxxxxxxxxxxxxxxxxxxxxxxxxxxxxxxxxxxxxxxxxx
            x  Element         Atom        Fractional coordinates of atoms  x
            x                 Number           u          v          w      x
            x---------------------------------------------------------------x
            x  H                 1         0.185105  -0.090729   0.252016   x
            x  H                 2         0.349441   0.120656   0.250669   x
            x  H                 3         0.500000   0.130794   0.750000   x
            x  H                 4         0.500000   0.422974   0.750000   x
            x  H                 5         0.814895  -0.090729   0.247984   x
            x  H                 6         0.650559   0.120656   0.249331   x
            x  H                 7         0.685105   0.409271   0.252016   x
            x  H                 8         0.849441   0.620656   0.250669   x
            x  H                 9         0.000000   0.630794   0.750000   x
            x  H                10        -0.000000   0.922974   0.750000   x
            x  H                11         0.314895   0.409271   0.247984   x
            x  H                12         0.150559   0.620656   0.249331   x
            x  H                13         0.314895   0.590729   0.747984   x
            x  H                14         0.150559   0.379344   0.749331   x
            x  H                15         0.000000   0.369206   0.250000   x
            x  H                16         0.000000   0.077026   0.250000   x
            x  H                17         0.685105   0.590729   0.752016   x
            x  H                18         0.849441   0.379344   0.750669   x
            x  H                19         0.814895   1.090729   0.747984   x
            x  H                20         0.650559   0.879344   0.749331   x
            x  H                21         0.500000   0.869206   0.250000   x
            x  H                22         0.500000   0.577026   0.250000   x
            x  H                23         0.185105   1.090729   0.752016   x
            x  H                24         0.349441   0.879344   0.750669   x
            xxxxxxxxxxxxxxxxxxxxxxxxxxxxxxxxxxxxxxxxxxxxxxxxxxxxxxxxxxxxxxxxx


------------------------------------------------------------------------ <-- SCF
SCF loop      Energy                           Energy gain       Timer   <-- SCF
                                               per atom          (sec)   <-- SCF
------------------------------------------------------------------------ <-- SCF
Initial  -3.45824354E+002                                        218.30  <-- SCF
      1  -3.45824354E+002                    7.73627333E-009     220.20  <-- SCF
      2  -3.45824354E+002                    2.97092096E-011     224.28  <-- SCF
      3  -3.45824354E+002                   -7.10322206E-010     228.13  <-- SCF
      4  -3.45824354E+002                   -1.04549188E-011     231.67  <-- SCF
      5  -3.45824354E+002                    1.10772593E-013     235.78  <-- SCF
      6  -3.45824354E+002                    9.06321219E-014     239.33  <-- SCF
------------------------------------------------------------------------ <-- SCF
 
Final energy =  -345.8243537764     eV
(energy not corrected for finite basis set)
 

 ******************************** Symmetrised Forces ********************************
 *                                                                                  *
 *                           Cartesian components (eV/A)                            *
 * -------------------------------------------------------------------------------- *
 *                         x                    y                    z              *
 *                                                                                  *
 * H               1     -0.00007              0.00008             -0.00001         *
 * H               2     -0.00004             -0.00007             -0.00003         *
 * H               3     -0.00000              0.00011             -0.00000         *
 * H               4     -0.00000             -0.00008             -0.00000         *
 * H               5      0.00007              0.00008              0.00001         *
 * H               6      0.00004             -0.00007              0.00003         *
 * H               7     -0.00007              0.00008             -0.00001         *
 * H               8     -0.00004             -0.00007             -0.00003         *
 * H               9     -0.00000              0.00011             -0.00000         *
 * H              10     -0.00000             -0.00008             -0.00000         *
 * H              11      0.00007              0.00008              0.00001         *
 * H              12      0.00004             -0.00007              0.00003         *
 * H              13      0.00007             -0.00008              0.00001         *
 * H              14      0.00004              0.00007              0.00003         *
 * H              15     -0.00000             -0.00011             -0.00000         *
 * H              16     -0.00000              0.00008             -0.00000         *
 * H              17     -0.00007             -0.00008             -0.00001         *
 * H              18     -0.00004              0.00007             -0.00003         *
 * H              19      0.00007             -0.00008              0.00001         *
 * H              20      0.00004              0.00007              0.00003         *
 * H              21     -0.00000             -0.00011             -0.00000         *
 * H              22     -0.00000              0.00008             -0.00000         *
 * H              23     -0.00007             -0.00008             -0.00001         *
 * H              24     -0.00004              0.00007             -0.00003         *
 *                                                                                  *
 ************************************************************************************

 *********** Symmetrised Stress Tensor ***********
 *                                               *
 *          Cartesian components (GPa)           *
 * --------------------------------------------- *
 *             x             y             z     *
 *                                               *
 *  x   -269.999128      0.000000      0.000235  *
 *  y      0.000000   -270.000419      0.000000  *
 *  z      0.000235      0.000000   -269.997807  *
 *                                               *
 *  Pressure:  269.9991                          *
 *                                               *
 *************************************************
  
 +------------+-------------+-------------+-----------------+ <-- min LBFGS
 |    Step    |   lambda    |   F.delta'  |    enthalpy     | <-- min LBFGS
 +------------+-------------+-------------+-----------------+ <-- min LBFGS
 |  previous  |    0.000000 |    0.000266 |     -284.221569 | <-- min LBFGS
 | trial step |    1.000000 |   -0.000212 |     -284.221569 | <-- min LBFGS
 |  line step |    0.556355 | -2.711E-007 |     -284.221569 | <-- min LBFGS
 +------------+-------------+-------------+-----------------+ <-- min LBFGS
  
 LBFGS: finished iteration     3 with enthalpy= -2.84221569E+002 eV
  
 +-----------+-----------------+-----------------+------------+-----+ <-- LBFGS
 | Parameter |      value      |    tolerance    |    units   | OK? | <-- LBFGS
 +-----------+-----------------+-----------------+------------+-----+ <-- LBFGS
 |  dE/ion   |   3.808120E-009 |   1.000000E-009 |         eV | No  | <-- LBFGS
 |  |F|max   |   1.140582E-004 |   1.000000E-004 |       eV/A | No  | <-- LBFGS
 |  |dR|max  |   2.058886E-005 |   1.000000E-004 |          A | Yes | <-- LBFGS
 |   Smax    |   2.192814E-003 |   1.000000E-004 |        GPa | No  | <-- LBFGS
 +-----------+-----------------+-----------------+------------+-----+ <-- LBFGS
  

================================================================================
 Starting LBFGS iteration          4 ...
================================================================================
  
 +------------+-------------+-------------+-----------------+ <-- min LBFGS
 |    Step    |   lambda    |   F.delta'  |    enthalpy     | <-- min LBFGS
 +------------+-------------+-------------+-----------------+ <-- min LBFGS
 |  previous  |    0.000000 |    0.000051 |     -284.221569 | <-- min LBFGS
 +------------+-------------+-------------+-----------------+ <-- min LBFGS
  

--------------------------------------------------------------------------------
 LBFGS: starting iteration         4 with trial guess (lambda=  1.000000)
--------------------------------------------------------------------------------

                           -------------------------------
                                      Unit Cell
                           -------------------------------
        Real Lattice(A)              Reciprocal Lattice(1/A)
     4.9014459     0.0000000    -0.0215743        1.288541670   0.000000000   1.507904158
     0.0000000     2.6842222     0.0000000        0.000000000   2.340784351   0.000000000
    -3.2682663     0.0000000     2.7928150        0.009953910   0.000000000   2.261416285

                       Lattice parameters(A)       Cell Angles
                    a =      4.901493          alpha =   90.000000
                    b =      2.684222          beta  =  139.737479
                    c =      4.298998          gamma =   90.000000

                Current cell volume =            36.554600 A**3

                           -------------------------------
                                     Cell Contents
                           -------------------------------

            xxxxxxxxxxxxxxxxxxxxxxxxxxxxxxxxxxxxxxxxxxxxxxxxxxxxxxxxxxxxxxxxx
            x  Element         Atom        Fractional coordinates of atoms  x
            x                 Number           u          v          w      x
            x---------------------------------------------------------------x
            x  H                 1         0.185103  -0.090726   0.252016   x
            x  H                 2         0.349440   0.120653   0.250668   x
            x  H                 3         0.500000   0.130797   0.750000   x
            x  H                 4         0.500000   0.422972   0.750000   x
            x  H                 5         0.814897  -0.090726   0.247984   x
            x  H                 6         0.650560   0.120653   0.249332   x
            x  H                 7         0.685103   0.409274   0.252016   x
            x  H                 8         0.849440   0.620653   0.250668   x
            x  H                 9         0.000000   0.630797   0.750000   x
            x  H                10        -0.000000   0.922972   0.750000   x
            x  H                11         0.314897   0.409274   0.247984   x
            x  H                12         0.150560   0.620653   0.249332   x
            x  H                13         0.314897   0.590726   0.747984   x
            x  H                14         0.150560   0.379347   0.749332   x
            x  H                15         0.000000   0.369203   0.250000   x
            x  H                16         0.000000   0.077028   0.250000   x
            x  H                17         0.685103   0.590726   0.752016   x
            x  H                18         0.849440   0.379347   0.750668   x
            x  H                19         0.814897   1.090726   0.747984   x
            x  H                20         0.650560   0.879347   0.749332   x
            x  H                21         0.500000   0.869203   0.250000   x
            x  H                22         0.500000   0.577028   0.250000   x
            x  H                23         0.185103   1.090726   0.752016   x
            x  H                24         0.349440   0.879347   0.750668   x
            xxxxxxxxxxxxxxxxxxxxxxxxxxxxxxxxxxxxxxxxxxxxxxxxxxxxxxxxxxxxxxxxx


------------------------------------------------------------------------ <-- SCF
SCF loop      Energy                           Energy gain       Timer   <-- SCF
                                               per atom          (sec)   <-- SCF
------------------------------------------------------------------------ <-- SCF
Initial  -3.45824036E+002                                        248.80  <-- SCF
      1  -3.45824037E+002                    7.11529426E-009     251.16  <-- SCF
      2  -3.45824037E+002                    2.34414948E-011     254.86  <-- SCF
      3  -3.45824037E+002                   -8.49178673E-010     258.44  <-- SCF
      4  -3.45824037E+002                   -4.31207495E-012     261.62  <-- SCF
      5  -3.45824037E+002                    4.73301081E-013     264.03  <-- SCF
------------------------------------------------------------------------ <-- SCF
 
Final energy =  -345.8240365367     eV
(energy not corrected for finite basis set)
 

 ******************************** Symmetrised Forces ********************************
 *                                                                                  *
 *                           Cartesian components (eV/A)                            *
 * -------------------------------------------------------------------------------- *
 *                         x                    y                    z              *
 *                                                                                  *
 * H               1     -0.00002             -0.00022             -0.00001         *
 * H               2     -0.00011              0.00020              0.00000         *
 * H               3      0.00000             -0.00040             -0.00000         *
 * H               4      0.00000              0.00036             -0.00000         *
 * H               5      0.00002             -0.00022              0.00001         *
 * H               6      0.00011              0.00020             -0.00000         *
 * H               7     -0.00002             -0.00022             -0.00001         *
 * H               8     -0.00011              0.00020              0.00000         *
 * H               9      0.00000             -0.00040             -0.00000         *
 * H              10      0.00000              0.00036             -0.00000         *
 * H              11      0.00002             -0.00022              0.00001         *
 * H              12      0.00011              0.00020             -0.00000         *
 * H              13      0.00002              0.00022              0.00001         *
 * H              14      0.00011             -0.00020             -0.00000         *
 * H              15      0.00000              0.00040             -0.00000         *
 * H              16      0.00000             -0.00036             -0.00000         *
 * H              17     -0.00002              0.00022             -0.00001         *
[...]
  -------------------------------------------

     Atomic Populations (Mulliken)
     -----------------------------
Species          Ion     s      p      d      f     Total  Charge (e)
=====================================================================
  H               1     1.00   0.00   0.00   0.00   1.00     0.00
  H               2     1.00   0.00   0.00   0.00   1.00    -0.00
  H               3     1.00   0.00   0.00   0.00   1.00    -0.00
  H               4     1.00   0.00   0.00   0.00   1.00     0.00
  H               5     1.00   0.00   0.00   0.00   1.00     0.00
  H               6     1.00   0.00   0.00   0.00   1.00    -0.00
  H               7     1.00   0.00   0.00   0.00   1.00     0.00
  H               8     1.00   0.00   0.00   0.00   1.00    -0.00
  H               9     1.00   0.00   0.00   0.00   1.00    -0.00
  H              10     1.00   0.00   0.00   0.00   1.00     0.00
  H              11     1.00   0.00   0.00   0.00   1.00     0.00
  H              12     1.00   0.00   0.00   0.00   1.00    -0.00
  H              13     1.00   0.00   0.00   0.00   1.00     0.00
  H              14     1.00   0.00   0.00   0.00   1.00    -0.00
  H              15     1.00   0.00   0.00   0.00   1.00    -0.00
  H              16     1.00   0.00   0.00   0.00   1.00     0.00
  H              17     1.00   0.00   0.00   0.00   1.00     0.00
  H              18     1.00   0.00   0.00   0.00   1.00    -0.00
  H              19     1.00   0.00   0.00   0.00   1.00     0.00
  H              20     1.00   0.00   0.00   0.00   1.00    -0.00
  H              21     1.00   0.00   0.00   0.00   1.00    -0.00
  H              22     1.00   0.00   0.00   0.00   1.00     0.00
  H              23     1.00   0.00   0.00   0.00   1.00     0.00
  H              24     1.00   0.00   0.00   0.00   1.00    -0.00
=====================================================================

                 Bond                   Population      Length (A)
======================================================================
              H 18 -- H 19                   1.13        0.78634
              H 14 -- H 23                   1.13        0.78634
              H 17 -- H 20                   1.13        0.78634
              H 13 -- H 24                   1.13        0.78634
              H 5  -- H 8                    1.13        0.78634
              H 1  -- H 12                   1.13        0.78634
              H 6  -- H 7                    1.13        0.78634
              H 2  -- H 11                   1.13        0.78634
              H 3  -- H 4                    1.13        0.78634
              H 15 -- H 16                   1.13        0.78634
              H 21 -- H 22                   1.13        0.78634
              H 9  -- H 10                   1.13        0.78634
              H 2  -- H 21                   0.25        1.06403
              H 6  -- H 21                   0.25        1.06403
              H 12 -- H 15                   0.25        1.06403
              H 8  -- H 15                   0.25        1.06403
              H 9  -- H 14                   0.25        1.06403
              H 9  -- H 18                   0.25        1.06403
              H 3  -- H 24                   0.25        1.06403
              H 3  -- H 20                   0.25        1.06403
              H 7  -- H 8                    0.25        1.06403
              H 17 -- H 18                   0.25        1.06403
              H 5  -- H 6                    0.25        1.06403
              H 19 -- H 20                   0.25        1.06403
              H 1  -- H 2                    0.25        1.06403
              H 13 -- H 14                   0.25        1.06403
              H 11 -- H 12                   0.25        1.06403
              H 23 -- H 24                   0.25        1.06403
              H 11 -- H 22                   0.25        1.06403
              H 4  -- H 13                   0.25        1.06403
              H 10 -- H 23                   0.25        1.06403
              H 1  -- H 16                   0.25        1.06403
              H 5  -- H 16                   0.25        1.06403
              H 4  -- H 17                   0.25        1.06403
              H 10 -- H 19                   0.25        1.06403
              H 7  -- H 22                   0.25        1.06403
              H 7  -- H 13                  -0.07        1.59232
              H 1  -- H 19                  -0.07        1.59232
              H 11 -- H 17                  -0.07        1.59232
              H 5  -- H 23                  -0.07        1.59232
              H 6  -- H 10                  -0.07        1.59232
              H 2  -- H 10                  -0.07        1.59232
              H 4  -- H 12                  -0.07        1.59232
              H 4  -- H 8                   -0.07        1.59232
              H 18 -- H 22                  -0.07        1.59232
              H 14 -- H 22                  -0.07        1.59232
              H 16 -- H 24                  -0.07        1.59232
              H 16 -- H 20                  -0.07        1.59232
              H 9  -- H 11                  -0.07        1.59232
              H 13 -- H 15                  -0.07        1.59232
              H 15 -- H 17                  -0.07        1.59232
              H 3  -- H 5                   -0.07        1.59232
              H 21 -- H 23                  -0.07        1.59232
              H 19 -- H 21                  -0.07        1.59232
              H 7  -- H 9                   -0.07        1.59232
              H 1  -- H 3                   -0.07        1.59232
              H 8  -- H 14                  -0.07        1.59232
              H 2  -- H 20                  -0.07        1.59232
              H 12 -- H 18                  -0.07        1.59232
              H 6  -- H 24                  -0.07        1.59232
              H 12 -- H 16                  -0.39        1.65097
              H 8  -- H 16                  -0.39        1.65097
              H 2  -- H 22                  -0.39        1.65097
              H 6  -- H 22                  -0.39        1.65097
              H 4  -- H 24                  -0.39        1.65097
              H 4  -- H 20                  -0.39        1.65097
              H 10 -- H 18                  -0.39        1.65097
              H 10 -- H 14                  -0.39        1.65097
              H 5  -- H 7                   -0.39        1.65097
              H 17 -- H 19                  -0.39        1.65097
              H 1  -- H 11                  -0.39        1.65097
              H 13 -- H 23                  -0.39        1.65097
              H 11 -- H 21                  -0.39        1.65098
              H 3  -- H 13                  -0.39        1.65098
              H 1  -- H 15                  -0.39        1.65098
              H 9  -- H 23                  -0.39        1.65098
              H 5  -- H 15                  -0.39        1.65098
              H 3  -- H 17                  -0.39        1.65098
              H 7  -- H 21                  -0.39        1.65098
              H 9  -- H 19                  -0.39        1.65098
              H 18 -- H 20                  -0.39        1.65098
              H 14 -- H 24                  -0.39        1.65098
              H 6  -- H 8                   -0.39        1.65098
              H 2  -- H 12                  -0.39        1.65098
              H 5  -- H 24                  -0.34        1.69982
              H 2  -- H 19                  -0.34        1.69982
              H 12 -- H 17                  -0.34        1.69982
              H 7  -- H 14                  -0.34        1.69982
              H 11 -- H 18                  -0.34        1.69982
              H 6  -- H 23                  -0.34        1.69982
              H 8  -- H 13                  -0.34        1.69982
              H 1  -- H 20                  -0.34        1.69982
              H 10 -- H 21                  -0.34        1.69982
              H 9  -- H 22                  -0.34        1.69982
              H 4  -- H 15                  -0.34        1.69982
              H 3  -- H 16                  -0.34        1.69982
              H 4  -- H 7                   -0.15        1.70523
              H 1  -- H 10                  -0.15        1.70523
              H 17 -- H 22                  -0.15        1.70523
              H 16 -- H 19                  -0.15        1.70523
              H 5  -- H 10                  -0.15        1.70523
              H 16 -- H 23                  -0.15        1.70523
              H 13 -- H 22                  -0.15        1.70523
              H 4  -- H 11                  -0.15        1.70523
              H 12 -- H 13                  -0.15        1.70523
              H 2  -- H 23                  -0.15        1.70523
              H 11 -- H 14                  -0.15        1.70523
              H 6  -- H 19                  -0.15        1.70523
              H 8  -- H 17                  -0.15        1.70523
              H 5  -- H 20                  -0.15        1.70523
              H 1  -- H 24                  -0.15        1.70523
              H 7  -- H 18                  -0.15        1.70523
              H 20 -- H 21                  -0.15        1.70523
              H 15 -- H 18                  -0.15        1.70523
              H 21 -- H 24                  -0.15        1.70523
              H 14 -- H 15                  -0.15        1.70523
              H 9  -- H 12                  -0.15        1.70523
              H 8  -- H 9                   -0.15        1.70523
              H 3  -- H 6                   -0.15        1.70523
              H 2  -- H 3                   -0.15        1.70523
              H 8  -- H 12                  -0.11        1.72931
              H 2  -- H 6                   -0.11        1.72931
              H 20 -- H 24                  -0.11        1.72931
              H 14 -- H 18                  -0.11        1.72931
              H 7  -- H 15                  -0.11        1.72931
              H 9  -- H 17                  -0.11        1.72931
              H 5  -- H 21                  -0.11        1.72931
              H 3  -- H 19                  -0.11        1.72931
              H 1  -- H 21                  -0.11        1.72931
              H 3  -- H 23                  -0.11        1.72931
              H 9  -- H 13                  -0.11        1.72931
              H 11 -- H 15                  -0.11        1.72931
              H 4  -- H 18                  -0.11        1.72932
              H 10 -- H 20                  -0.11        1.72932
              H 4  -- H 14                  -0.11        1.72932
              H 10 -- H 24                  -0.11        1.72932
              H 8  -- H 22                  -0.11        1.72932
              H 6  -- H 16                  -0.11        1.72932
              H 2  -- H 16                  -0.11        1.72932
              H 12 -- H 22                  -0.11        1.72932
              H 19 -- H 23                  -0.11        1.72933
              H 13 -- H 17                  -0.11        1.72933
              H 7  -- H 11                  -0.11        1.72933
              H 1  -- H 5                   -0.11        1.72933
              H 9  -- H 21                  -0.19        1.87289
              H 3  -- H 15                  -0.19        1.87289
              H 8  -- H 24                  -0.19        1.87289
              H 12 -- H 20                  -0.19        1.87289
              H 6  -- H 14                  -0.19        1.87289
              H 2  -- H 18                  -0.19        1.87289
              H 11 -- H 19                  -0.19        1.87290
              H 1  -- H 17                  -0.19        1.87290
              H 5  -- H 13                  -0.19        1.87290
              H 7  -- H 23                  -0.19        1.87290
              H 4  -- H 16                  -0.19        1.87290
              H 10 -- H 22                  -0.19        1.87290
              H 12 -- H 24                  -0.04        1.87780
              H 8  -- H 20                  -0.04        1.87780
              H 2  -- H 14                  -0.04        1.87780
              H 6  -- H 18                  -0.04        1.87780
              H 3  -- H 7                   -0.04        1.87780
              H 1  -- H 9                   -0.04        1.87780
              H 15 -- H 19                  -0.04        1.87780
              H 17 -- H 21                  -0.04        1.87780
              H 5  -- H 9                   -0.04        1.87780
              H 15 -- H 23                  -0.04        1.87780
              H 13 -- H 21                  -0.04        1.87780
              H 3  -- H 11                  -0.04        1.87780
              H 20 -- H 22                  -0.04        1.87781
              H 22 -- H 24                  -0.04        1.87781
              H 16 -- H 18                  -0.04        1.87781
              H 14 -- H 16                  -0.04        1.87781
              H 10 -- H 12                  -0.04        1.87781
              H 8  -- H 10                  -0.04        1.87781
              H 4  -- H 6                   -0.04        1.87781
              H 2  -- H 4                   -0.04        1.87781
              H 11 -- H 23                  -0.04        1.87781
              H 1  -- H 13                  -0.04        1.87781
              H 5  -- H 17                  -0.04        1.87781
              H 7  -- H 19                  -0.04        1.87781
              H 7  -- H 16                  -0.18        1.89970
              H 4  -- H 19                  -0.18        1.89970
              H 10 -- H 17                  -0.18        1.89970
              H 5  -- H 22                  -0.18        1.89970
              H 1  -- H 22                  -0.18        1.89970
              H 4  -- H 23                  -0.18        1.89970
              H 10 -- H 13                  -0.18        1.89970
              H 11 -- H 16                  -0.18        1.89970
              H 6  -- H 11                  -0.18        1.89970
              H 18 -- H 23                  -0.18        1.89970
              H 13 -- H 20                  -0.18        1.89970
              H 1  -- H 8                   -0.18        1.89970
              H 5  -- H 12                  -0.18        1.89970
              H 14 -- H 19                  -0.18        1.89970
              H 17 -- H 24                  -0.18        1.89970
              H 2  -- H 7                   -0.18        1.89970
              H 9  -- H 20                  -0.18        1.89971
              H 3  -- H 18                  -0.18        1.89971
              H 9  -- H 24                  -0.18        1.89971
              H 3  -- H 14                  -0.18        1.89971
              H 8  -- H 21                  -0.18        1.89971
              H 12 -- H 21                  -0.18        1.89971
              H 6  -- H 15                  -0.18        1.89971
              H 2  -- H 15                  -0.18        1.89971
              H 7  -- H 24                   0.04        2.03201
              H 1  -- H 18                   0.04        2.03201
              H 11 -- H 20                   0.04        2.03201
              H 5  -- H 14                   0.04        2.03201
              H 2  -- H 17                   0.04        2.03201
              H 6  -- H 13                   0.04        2.03201
              H 8  -- H 23                   0.04        2.03201
              H 12 -- H 19                   0.04        2.03201
              H 22 -- H 23                   0.04        2.03201
              H 19 -- H 22                   0.04        2.03201
              H 13 -- H 16                   0.04        2.03201
              H 4  -- H 5                    0.04        2.03201
              H 16 -- H 17                   0.04        2.03201
              H 10 -- H 11                   0.04        2.03201
              H 1  -- H 4                    0.04        2.03201
              H 7  -- H 10                   0.04        2.03201
              H 6  -- H 9                    0.04        2.03201
              H 2  -- H 9                    0.04        2.03201
              H 3  -- H 12                   0.04        2.03201
              H 3  -- H 8                    0.04        2.03201
              H 18 -- H 21                   0.04        2.03201
              H 14 -- H 21                   0.04        2.03201
              H 15 -- H 24                   0.04        2.03201
              H 15 -- H 20                   0.04        2.03201
              H 10 -- H 16                  -0.05        2.35466
              H 4  -- H 22                  -0.05        2.35466
              H 7  -- H 17                  -0.05        2.35466
              H 1  -- H 23                  -0.05        2.35466
              H 11 -- H 13                  -0.05        2.35466
              H 5  -- H 19                  -0.05        2.35466
              H 12 -- H 14                  -0.05        2.35467
              H 8  -- H 18                  -0.05        2.35467
              H 6  -- H 20                  -0.05        2.35467
              H 2  -- H 24                  -0.05        2.35467
              H 9  -- H 15                  -0.05        2.35467
              H 3  -- H 21                  -0.05        2.35467
              H 7  -- H 12                   0.02        2.66706
              H 2  -- H 5                    0.02        2.66706
              H 14 -- H 17                   0.02        2.66706
              H 1  -- H 6                    0.02        2.66706
              H 19 -- H 24                   0.02        2.66706
              H 8  -- H 11                   0.02        2.66706
              H 13 -- H 18                   0.02        2.66706
              H 20 -- H 23                   0.02        2.66706
              H 15 -- H 22                   0.02        2.66707
              H 3  -- H 10                   0.02        2.66707
              H 16 -- H 21                   0.02        2.66707
              H 4  -- H 9                    0.02        2.66707
              H 7  -- H 20                   0.07        2.67170
              H 6  -- H 17                   0.07        2.67170
              H 8  -- H 19                   0.07        2.67170
              H 1  -- H 14                   0.07        2.67170
              H 5  -- H 18                   0.07        2.67170
              H 2  -- H 13                   0.07        2.67170
              H 12 -- H 23                   0.07        2.67170
              H 11 -- H 24                   0.07        2.67170
              H 10 -- H 15                   0.07        2.67170
              H 3  -- H 22                   0.07        2.67170
              H 9  -- H 16                   0.07        2.67170
              H 4  -- H 21                   0.07        2.67170
======================================================================


Writing analysis data to C2c.castep_bin

Writing model to C2c.check
 
 A BibTeX formatted list of references used in this run has been written to 
 C2c.bib
 
Initialisation time =      6.73 s
Calculation time    =    522.91 s
Finalisation time   =      1.45 s
Total time          =    531.09 s
Peak Memory Use     = 412852 kB
  
Overall parallel efficiency rating: Terrible (20%)                              
  
Data was distributed by:-
G-vector (4-way); efficiency rating: Terrible (22%)                             
k-point (2-way); efficiency rating: Good (72%)                                  
  
Parallel notes:
1) Calculation only took 529.7 s, so efficiency estimates may be inaccurate.    
