 +-------------------------------------------------+
 |                                                 |
 |      CCC   AA    SSS  TTTTT  EEEEE  PPPP        |
 |     C     A  A  S       T    E      P   P       |
 |     C     AAAA   SS     T    EEE    PPPP        |
 |     C     A  A     S    T    E      P           |
 |      CCC  A  A  SSS     T    EEEEE  P           |
 |                                                 |
 +-------------------------------------------------+
 |                                                 |
 | Welcome to Academic Release CASTEP version 18.1 |          
 | Ab Initio Total Energy Program                  |
 |                                                 |
 | Authors:                                        |
 | M. Segall, M. Probert, C. Pickard, P. Hasnip,   |
 | S. Clark, K. Refson, J. R. Yates, M. Payne      |
 |                                                 |
 | Contributors:                                   |
 | P. Lindan, P. Haynes, J. White, V. Milman,      |
 | N. Govind, M. Gibson, P. Tulip, V. Cocula,      |
 | B. Montanari, D. Quigley, M. Glover,            |
 | L. Bernasconi, A. Perlov, M. Plummer,           |
 | E. McNellis, J. Meyer, J. Gale, D. Jochym       |
 | J. Aarons, B. Walker, R. Gillen, D. Jones       |
 | T. Green, I. J. Bush, C. J. Armstrong,          |
 | E. J. Higgins, E. L. Brown, M. S. McFly,        |
 | J. Wilkins, B-C. Shih, P. J. P. Byrne           |
 |                                                 |
 | Copyright (c) 2000 - 2017                       |
 |                                                 |
 |     Distributed under the terms of an           |
 |     Agreement between the United Kingdom        |
 |     Car-Parrinello (UKCP) Consortium,           |
 |     Daresbury Laboratory and Accelrys, Inc.     |
 |                                                 |
 | Please cite                                     |
 |                                                 |
 |     "First principles methods using CASTEP"     |
 |                                                 |
 |         Zeitschrift fuer Kristallographie       |
 |           220(5-6) pp. 567-570 (2005)           |
 |                                                 |
 | S. J. Clark, M. D. Segall, C. J. Pickard,       |
 | P. J. Hasnip, M. J. Probert, K. Refson,         |
 | M. C. Payne                                     |
 |                                                 |
 |       in all publications arising from          |
 |              your use of CASTEP                 |
 |                                                 |
 +-------------------------------------------------+


 Compiled for linux_x86_64_gfortran4.8 on Thu, 19 Jul 2018 15:42:32 +0100
 from code version 70483bd0ad64+  Sun, 10 Dec 2017 12:18:29 +0000
 Compiler: GNU Fortran 4.8.5; Optimisation: fast
 MATHLIBS: Intel MKL(2018.0.0) (LAPACK version 3.7.0)
 FFT Lib : mkl
 Fundamental constants values: CODATA 2014

 Run started: Wed, 05 Aug 2020 13:06:41 +0100
 +-------------------------------------------------+
 |                                                 |
 |  D D D D    F F F F F  P P P P     T T T T T    |
 |  D       D  F          P       P       T        |
 |  D       D  F F F F    P P P P         T        |
 |  D       D  F          P               T        |
 |  D D D D    F          P               T        |
 |                                                 |
 +-------------------------------------------------+
 |                                                 |
 | Welcome to Castep Linear Response (DFPT)        |
 |                                                 |
 | Copyright (c) 2006 - 2017                       |
 |                                                 |
 | Please cite the following publications in all   |
 | work arising from your use of CASTEP LR.        |
 |                                                 |
 | K. Refson, S. J. Clark and P. R. Tulip          |
 | Variational density functional perturbation     |
 | theory for dielectrics and lattice dynamics     |
 | Phys. Rev. B 73(15), 155114 (2006)              |
 +-------------------------------------------------+


 Atomic calculation performed for H: 1s1

 Converged in 41 iterations to an ae energy of -12.488 eV

   ============================================================                
   | Pseudopotential Report - Date of generation  5-08-2020   |                
   ------------------------------------------------------------                
   | Element: H Ionic charge:  1.00 Level of theory: PBE      |                
   | Atomic Solver: Koelling-Harmon                           |                
   |                                                          |                
   |               Reference Electronic Structure             |                
   |         Orbital         Occupation         Energy        |                
   |            1s              1.000           -0.239        |                
   |                                                          |                
   |                 Pseudopotential Definition               |                
   |        Beta     l      e      Rc     scheme   norm       |                
   |         loc     0   -0.239   0.702     qc      1         |                
   |                                                          |                
   | No charge augmentation                                   |                
   | No partial core correction                               |                
   ------------------------------------------------------------                
   | "0|0.7|2|6|8|10L(qc=10)"                                 |                
   ------------------------------------------------------------                
   |      Author: Chris J. Pickard, Cambridge University      |                
   ============================================================                

 Pseudo atomic calculation performed for H 1s1

 Converged in 24 iterations to a total energy of -12.4843 eV

 Calculation parallelised over 16 processes.
 Data is distributed by G-vector(4-way) and k-point(4-way)

 ************************************ Title ************************************
 

 ***************************** General Parameters ******************************
  
 output verbosity                               : normal  (1)
 write checkpoint data to                       : Pca21.check
 type of calculation                            : phonon calculation
 stress calculation                             : on
 density difference calculation                 : off
 electron localisation func (ELF) calculation   : off
 Hirshfeld analysis                             : off
 unlimited duration calculation
 timing information                             : on
 memory usage estimate                          : on
 write extra output files                       : on
 write final potential to formatted file        : off
 write final density to formatted file          : off
 write structure in CELL formatted file         : on
 write BibTeX reference list                    : on
 write OTFG pseudopotential files               : on
 write electrostatic potential file             : on
 write bands file                               : on
 checkpoint writing                             : both castep_bin and check files
  
 output         length unit                     : A
 output           mass unit                     : amu
 output           time unit                     : ps
 output         charge unit                     : e
 output           spin unit                     : hbar/2
 output         energy unit                     : eV
 output          force unit                     : eV/A
 output       velocity unit                     : A/ps
 output       pressure unit                     : GPa
 output     inv_length unit                     : 1/A
 output      frequency unit                     : cm-1
 output force constant unit                     : eV/A**2
 output         volume unit                     : A**3
 output   IR intensity unit                     : (D/A)**2/amu
 output         dipole unit                     : D
 output         efield unit                     : eV/A/e
 output        entropy unit                     : J/mol/K
  
 wavefunctions paging                           : none
 random number generator seed                   : randomised (130641830)
 data distribution                              : optimal for this architecture
 optimization strategy                          : maximize speed(+++)

 *********************** Exchange-Correlation Parameters ***********************
  
 using functional                               : Perdew Burke Ernzerhof
 relativistic treatment                         : Koelling-Harmon
 DFT+D: Semi-empirical dispersion correction    : off

 ************************* Pseudopotential Parameters **************************
  
 pseudopotential representation                 : reciprocal space
 <beta|phi> representation                      : reciprocal space
 spin-orbit coupling                            : off

 **************************** Basis Set Parameters *****************************
  
 plane wave basis set cut-off                   :  1200.0000   eV
 size of standard grid                          :     2.0000
 size of   fine   gmax                          :    35.4943   1/A
 finite basis set correction                    : automatic
 number of sample energies                      :          3
           sample  spacing                      :     5.0000   eV

 **************************** Electronic Parameters ****************************
  
 number of  electrons                           :  8.000    
 net charge of system                           :  0.000    
 treating system as non-spin-polarized
 number of bands                                :          4

 ********************* Electronic Minimization Parameters **********************
  
 Method: Treating system as non-metallic,
         and number of  SD  steps               :          1
         and number of  CG  steps               :          4
  
 total energy / atom convergence tol.           : 0.1000E-10   eV
 eigen-energy convergence tolerance             : 0.2000E-10   eV
 max force / atom convergence tol.              : ignored
 convergence tolerance window                   :          3   cycles
 max. number of SCF cycles                      :        100
 periodic dipole correction                     : NONE

 ************************** Density Mixing Parameters **************************
  
 density-mixing scheme                          : Broyden
 max. length of mixing history                  :         20
 charge density mixing amplitude                : 0.8000    
 cut-off energy for mixing                      :  1200.       eV

 *********************** Population Analysis Parameters ************************
  
 Population analysis with cutoff                :  3.000       A
 Population analysis output                     : summary and pdos components

 ****************************** Phonon Parameters ******************************
  
 phonon calculation method                      : linear response
 phonon convergence tolerance                   : 0.1000E-04   eV/A**2
 max. number of phonon cycles                   :         50
 max. number of phonon CG steps                 :          0
 convergence tolerance window                   :          2   cycles
 DFPT solver method                             : AllBands (Gonze variational method)
 preconditioning scheme                         : TPA     
 fine phonon calculation method                 : interpolation
 non-periodic force constant method             : Weighted cumulant sum
 LO/TO splitting term                           : included
 acoustic phonon sum rule                       : correct D(q) in recip-space
 Born effective charges                         : calculated
 Born charge sum rule                           : explicitly enforced
 Raman intensities                              : calculated
 Raman frequency window start                   :  0.000       eV
 Raman frequency window stop                    :  1.000       eV
 Raman tensor calculated using                  : finite displacement method
 phonon k-points                                : use reduced set
 phonon DOS                                     : not calculated
 backups results every                          :      14400   seconds
 band convergence tolerance                     : 0.1000E-08   eV

 *******************************************************************************
  

                           -------------------------------
                                      Unit Cell
                           -------------------------------
        Real Lattice(A)                      Reciprocal Lattice(1/A)
     3.5464572     0.0000000     0.0000000        1.771679458   0.000000000   0.000000000
     0.0000000     2.0598705     0.0000000        0.000000000   3.050281720   0.000000000
     0.0000000     0.0000000     3.2890062        0.000000000   0.000000000   1.910359826

                       Lattice parameters(A)       Cell Angles
                    a =      3.546457          alpha =   90.000000
                    b =      2.059870          beta  =   90.000000
                    c =      3.289006          gamma =   90.000000

                       Current cell volume =            24.026988       A**3
                                   density =             0.335603   AMU/A**3
                                           =             0.557281     g/cm^3

                           -------------------------------
                                     Cell Contents
                           -------------------------------
                         Total number of ions in cell =    8
                      Total number of species in cell =    1
                        Max number of any one species =    8

            xxxxxxxxxxxxxxxxxxxxxxxxxxxxxxxxxxxxxxxxxxxxxxxxxxxxxxxxxxxx
            x  Element    Atom        Fractional coordinates of atoms  x
            x            Number           u          v          w      x
            x----------------------------------------------------------x
            x  H            1         0.355822   0.142090   0.379318   x 
            x  H            2         0.477075   0.359709   0.499582   x 
            x  H            3         0.977075   0.640291   0.499582   x 
            x  H            4         0.855822   0.857910   0.379318   x 
            x  H            5         0.022925   0.359709  -0.000418   x 
            x  H            6         0.144178   0.142090   0.879318   x 
            x  H            7         0.522925   0.640291  -0.000418   x 
            x  H            8         0.644178   0.857910   0.879318   x 
            xxxxxxxxxxxxxxxxxxxxxxxxxxxxxxxxxxxxxxxxxxxxxxxxxxxxxxxxxxxx


                         No user defined ionic velocities

                           -------------------------------
                                   Details of Species
                           -------------------------------

                               Mass of species in AMU
                                    H    1.0078250

                          Electric Quadrupole Moment (Barn)
                                    H    0.0028600 Isotope  2

                          Files used for pseudopotentials:
                                    H 0|0.7|2|6|8|10L(qc=10)

                           -------------------------------
                              k-Points For BZ Sampling
                           -------------------------------
                       MP grid size for SCF calculation is  7 13  9
                            with an offset of   0.000  0.000  0.000
                       Number of kpoints used =           140

                           -------------------------------
                               Symmetry and Constraints
                           -------------------------------

                      Maximum deviation from symmetry = 0.708725E-14     ANG

                      Number of symmetry operations   =           4
                      Number of ionic constraints     =           3
                      Point group of crystal =     6: C2v, mm2, 2 mm
                      Space group of crystal =    29: Pca2_1, P 2c -2ac

             Set iprint > 1 for details on symmetry rotations/translations

                         Centre of mass is constrained
             Set iprint > 1 for details of linear ionic constraints

                         Number of cell constraints= 3
                         Cell constraints are:  1 2 3 0 0 0

                         External pressure/stress (GPa)
                         50.00000   0.00000   0.00000
                                   50.00000   0.00000
                                             50.00000
  
+---------------- MEMORY AND SCRATCH DISK ESTIMATES PER PROCESS --------------+
|                                                     Memory          Disk    |
| Baseline code, static data and system overhead      411.0 MB         0.0 MB |
| BLAS internal memory storage                          0.0 MB         0.0 MB |
| Model and support data                               12.3 MB         0.0 MB |
| Electronic energy minimisation requirements           5.0 MB         0.0 MB |
| Force calculation requirements                        1.3 MB         0.0 MB |
| Stress calculation requirements                       1.7 MB         0.0 MB |
|                                               ----------------------------- |
| Approx. total storage required per process          428.3 MB         0.0 MB |
|                                                                             |
| Requirements will fluctuate during execution and may exceed these estimates |
+-----------------------------------------------------------------------------+
Calculating finite basis set correction with  3 cut-off energies.
Calculating total energy with cut-off of 1190.000 eV.
------------------------------------------------------------------------ <-- SCF
SCF loop      Energy                           Energy gain       Timer   <-- SCF
                                               per atom          (sec)   <-- SCF
------------------------------------------------------------------------ <-- SCF
Initial   2.08191685E+002                                          1.36  <-- SCF
      1  -9.97957378E+001                    3.84984278E+001       1.61  <-- SCF
      2  -1.24255658E+002                    3.05749006E+000       1.79  <-- SCF
      3  -1.24383905E+002                    1.60308093E-002       1.93  <-- SCF
      4  -1.23570944E+002                   -1.01620118E-001       2.20  <-- SCF
      5  -1.23544887E+002                   -3.25704927E-003       2.46  <-- SCF
      6  -1.23546073E+002                    1.48145114E-004       2.72  <-- SCF
      7  -1.23546204E+002                    1.64482384E-005       2.99  <-- SCF
      8  -1.23546205E+002                    5.49052234E-008       3.25  <-- SCF
      9  -1.23546205E+002                    4.53402597E-009       3.51  <-- SCF
     10  -1.23546205E+002                    2.41474183E-011       3.71  <-- SCF
     11  -1.23546205E+002                    1.93046420E-012       3.90  <-- SCF
     12  -1.23546205E+002                    2.02411739E-013       4.10  <-- SCF
------------------------------------------------------------------------ <-- SCF
 
Final energy =  -123.5462046523     eV
(energy not corrected for finite basis set)
 
Calculating total energy with cut-off of 1195.000 eV.
------------------------------------------------------------------------ <-- SCF
SCF loop      Energy                           Energy gain       Timer   <-- SCF
                                               per atom          (sec)   <-- SCF
------------------------------------------------------------------------ <-- SCF
Initial  -1.23546205E+002                                          4.30  <-- SCF
      1  -1.23546760E+002                    6.94314449E-005       4.50  <-- SCF
      2  -1.23546760E+002                    7.17504298E-011       4.75  <-- SCF
      3  -1.23546760E+002                    3.34333590E-008       5.01  <-- SCF
      4  -1.23546760E+002                    2.03535879E-009       5.27  <-- SCF
      5  -1.23546760E+002                    2.39450066E-011       5.47  <-- SCF
      6  -1.23546760E+002                    9.96953341E-013       5.67  <-- SCF
      7  -1.23546760E+002                    3.14191356E-013       5.86  <-- SCF
------------------------------------------------------------------------ <-- SCF
 
Final energy =  -123.5467603884     eV
(energy not corrected for finite basis set)
 
Calculating total energy with cut-off of 1200.000 eV.
------------------------------------------------------------------------ <-- SCF
SCF loop      Energy                           Energy gain       Timer   <-- SCF
                                               per atom          (sec)   <-- SCF
------------------------------------------------------------------------ <-- SCF
Initial  -1.23546760E+002                                          6.08  <-- SCF
      1  -1.23547310E+002                    6.86606028E-005       6.36  <-- SCF
      2  -1.23547310E+002                    6.97716285E-011       6.70  <-- SCF
      3  -1.23547310E+002                    3.32794807E-008       7.06  <-- SCF
      4  -1.23547310E+002                    1.97481351E-009       7.41  <-- SCF
      5  -1.23547310E+002                    2.32441182E-011       7.67  <-- SCF
      6  -1.23547310E+002                    1.00903762E-012       7.93  <-- SCF
      7  -1.23547310E+002                    2.96064932E-013       8.18  <-- SCF
------------------------------------------------------------------------ <-- SCF
 
Final energy =  -123.5473099560     eV
(energy not corrected for finite basis set)
 
 For future reference: finite basis dEtot/dlog(Ecut) =      -0.131856eV
 Total energy corrected for finite basis set =    -123.547307 eV

 Efield perturbation    1:  X                                             9.30s
  Parallel strategy changed for perturbation using 224 k-points
  Data is distributed by G-vector(1-way) and k-point(16-way) and band(1-way)
  +---------------- MEMORY AND SCRATCH DISK ESTIMATES PER PROCESS --------------+
  |                                                     Memory          Disk    |
  | Baseline code, static data and system overhead      411.0 MB         0.0 MB |
  | BLAS internal memory storage                          0.0 MB         0.0 MB |
  | Model and support data                               12.4 MB         0.0 MB |
  | DFPT E-field response requirements                   17.6 MB         0.0 MB |
  |                                               ----------------------------- |
  | Approx. total storage required per process          441.0 MB         0.0 MB |
  |                                                                             |
  | Requirements will fluctuate during execution and may exceed these estimates |
  +-----------------------------------------------------------------------------+

 Efield perturbation    2:  Y                                            18.07s
  Parallel strategy changed for perturbation using 236 k-points
  Data is distributed by G-vector(1-way) and k-point(16-way) and band(1-way)
  +---------------- MEMORY AND SCRATCH DISK ESTIMATES PER PROCESS --------------+
  |                                                     Memory          Disk    |
  | Baseline code, static data and system overhead      411.0 MB         0.0 MB |
  | BLAS internal memory storage                          0.0 MB         0.0 MB |
  | Model and support data                               12.4 MB         0.0 MB |
  | DFPT E-field response requirements                   18.6 MB         0.0 MB |
  |                                               ----------------------------- |
  | Approx. total storage required per process          442.0 MB         0.0 MB |
  |                                                                             |
  | Requirements will fluctuate during execution and may exceed these estimates |
  +-----------------------------------------------------------------------------+

 Efield perturbation    3:  Z                                            26.45s
  Parallel strategy changed for perturbation using 140 k-points
  Data is distributed by G-vector(4-way) and k-point(4-way) and band(1-way)
 Perturbation    1 (of    6): H     1 X at q=( 0.000, 0.000, 0.000):     35.94s
  Parallel strategy changed for perturbation using 410 k-points
  Data is distributed by G-vector(1-way) and k-point(16-way) and band(1-way)
  +---------------- MEMORY AND SCRATCH DISK ESTIMATES PER PROCESS --------------+
  |                                                     Memory          Disk    |
  | Baseline code, static data and system overhead      411.0 MB         0.0 MB |
  | BLAS internal memory storage                          0.0 MB         0.0 MB |
  | Model and support data                               12.4 MB         0.0 MB |
  | DFPT phonon calculation requirements                 40.3 MB         0.0 MB |
  |                                               ----------------------------- |
  | Approx. total storage required per process          463.7 MB         0.0 MB |
  |                                                                             |
  | Requirements will fluctuate during execution and may exceed these estimates |
  +-----------------------------------------------------------------------------+
 Perturbation    2 (of    6): H     2 X at q=( 0.000, 0.000, 0.000):     48.94s
 Perturbation    3 (of    6): H     1 Y at q=( 0.000, 0.000, 0.000):     60.02s
 Perturbation    4 (of    6): H     2 Y at q=( 0.000, 0.000, 0.000):     71.06s
 Perturbation    5 (of    6): H     1 Z at q=( 0.000, 0.000, 0.000):     82.11s
 Perturbation    6 (of    6): H     2 Z at q=( 0.000, 0.000, 0.000):     93.12s

 Phonon calculation: q-point   1 (of    1) ( 0.000, 0.000, 0.000):      104.08s
 -------------------------------------------------------------------------------
 
 ==============================================================================
 +                           Vibrational Frequencies                          +
 +                           -----------------------                          +
 +                                                                            +
 + Performing frequency calculation at  1 wavevector  (q-pt )                 +
 + ========================================================================== +
 +                                                                            +
 +============================================================================+
 +                       Raman Intensity Progress Report                      +
 +----------------------------------------------------------------------------+
 + RAMAN: Not a continuation; generating Raman intensities from beginning     +
 +----------------------------------------------------------------------------+
 + Mode     1: not Raman active; calculation not required                     +
 + Mode     2: not Raman active; calculation not required                     +
 + Mode     3: not Raman active; calculation not required                     +
 + Mode     4: performing Raman intensity calculation                         +

 Efield perturbation    1:  X                                           111.95s
  Parallel strategy changed for perturbation using 410 k-points
  Data is distributed by G-vector(1-way) and k-point(16-way) and band(1-way)

 Efield perturbation    2:  Y                                           122.32s
  Parallel strategy changed for perturbation using 236 k-points
  Data is distributed by G-vector(4-way) and k-point(4-way) and band(1-way)

 Efield perturbation    3:  Z                                           137.66s

 Efield perturbation    1:  X                                           154.31s
  Parallel strategy changed for perturbation using 410 k-points
  Data is distributed by G-vector(1-way) and k-point(16-way) and band(1-way)

 Efield perturbation    2:  Y                                           164.69s
  Parallel strategy changed for perturbation using 236 k-points
  Data is distributed by G-vector(4-way) and k-point(4-way) and band(1-way)

 Efield perturbation    3:  Z                                           180.22s
 + Mode number:   4 completed;                   time taken:    85.74 seconds +
 + Mode     5: performing Raman intensity calculation                         +

 Efield perturbation    1:  X                                           194.86s
  Parallel strategy changed for perturbation using 224 k-points
  Data is distributed by G-vector(1-way) and k-point(16-way) and band(1-way)

 Efield perturbation    2:  Y                                           203.51s
  Parallel strategy changed for perturbation using 236 k-points
  Data is distributed by G-vector(1-way) and k-point(16-way) and band(1-way)

 Efield perturbation    3:  Z                                           211.83s
  Parallel strategy changed for perturbation using 140 k-points
  Data is distributed by G-vector(4-way) and k-point(4-way) and band(1-way)

 Efield perturbation    1:  X                                           225.97s
  Parallel strategy changed for perturbation using 224 k-points
  Data is distributed by G-vector(1-way) and k-point(16-way) and band(1-way)

 Efield perturbation    2:  Y                                           234.58s
  Parallel strategy changed for perturbation using 236 k-points
  Data is distributed by G-vector(1-way) and k-point(16-way) and band(1-way)

 Efield perturbation    3:  Z                                           242.90s
  Parallel strategy changed for perturbation using 140 k-points
  Data is distributed by G-vector(4-way) and k-point(4-way) and band(1-way)
 + Mode number:   5 completed;                   time taken:    62.59 seconds +
 + Mode     6: performing Raman intensity calculation                         +

 Efield perturbation    1:  X                                           257.46s
  Parallel strategy changed for perturbation using 224 k-points
  Data is distributed by G-vector(1-way) and k-point(16-way) and band(1-way)

 Efield perturbation    2:  Y                                           266.04s
  Parallel strategy changed for perturbation using 236 k-points
  Data is distributed by G-vector(1-way) and k-point(16-way) and band(1-way)

 Efield perturbation    3:  Z                                           274.36s
  Parallel strategy changed for perturbation using 140 k-points
  Data is distributed by G-vector(4-way) and k-point(4-way) and band(1-way)

 Efield perturbation    1:  X                                           288.47s
  Parallel strategy changed for perturbation using 224 k-points
  Data is distributed by G-vector(1-way) and k-point(16-way) and band(1-way)

 Efield perturbation    2:  Y                                           297.07s
  Parallel strategy changed for perturbation using 236 k-points
  Data is distributed by G-vector(1-way) and k-point(16-way) and band(1-way)

 Efield perturbation    3:  Z                                           305.47s
  Parallel strategy changed for perturbation using 140 k-points
  Data is distributed by G-vector(4-way) and k-point(4-way) and band(1-way)
 + Mode number:   6 completed;                   time taken:    62.61 seconds +
 + Mode     7: performing Raman intensity calculation                         +

 Efield perturbation    1:  X                                           324.65s
  Parallel strategy changed for perturbation using 410 k-points
  Data is distributed by G-vector(1-way) and k-point(16-way) and band(1-way)

 Efield perturbation    2:  Y                                           340.28s

 Efield perturbation    3:  Z                                           347.62s
  Parallel strategy changed for perturbation using 230 k-points
  Data is distributed by G-vector(8-way) and k-point(2-way) and band(1-way)

 Efield perturbation    1:  X                                           370.95s
  Parallel strategy changed for perturbation using 410 k-points
  Data is distributed by G-vector(1-way) and k-point(16-way) and band(1-way)

 Efield perturbation    2:  Y                                           386.59s

 Efield perturbation    3:  Z                                           393.91s
  Parallel strategy changed for perturbation using 230 k-points
  Data is distributed by G-vector(8-way) and k-point(2-way) and band(1-way)
 + Mode number:   7 completed;                   time taken:    93.61 seconds +
 + Mode     8: performing Raman intensity calculation                         +

 Efield perturbation    1:  X                                           414.00s

 Efield perturbation    2:  Y                                           425.47s
  Parallel strategy changed for perturbation using 410 k-points
  Data is distributed by G-vector(1-way) and k-point(16-way) and band(1-way)

 Efield perturbation    3:  Z                                           435.86s
  Parallel strategy changed for perturbation using 224 k-points
  Data is distributed by G-vector(1-way) and k-point(16-way) and band(1-way)

 Efield perturbation    1:  X                                           449.81s

 Efield perturbation    2:  Y                                           461.46s
  Parallel strategy changed for perturbation using 410 k-points
  Data is distributed by G-vector(1-way) and k-point(16-way) and band(1-way)

 Efield perturbation    3:  Z                                           471.84s
  Parallel strategy changed for perturbation using 224 k-points
  Data is distributed by G-vector(1-way) and k-point(16-way) and band(1-way)
 + Mode number:   8 completed;                   time taken:    72.29 seconds +
 + Mode     9: performing Raman intensity calculation                         +

 Efield perturbation    1:  X                                           490.54s
  Parallel strategy changed for perturbation using 410 k-points
  Data is distributed by G-vector(1-way) and k-point(16-way) and band(1-way)

 Efield perturbation    2:  Y                                           506.16s

 Efield perturbation    3:  Z                                           513.45s
  Parallel strategy changed for perturbation using 230 k-points
  Data is distributed by G-vector(8-way) and k-point(2-way) and band(1-way)

 Efield perturbation    1:  X                                           536.93s
  Parallel strategy changed for perturbation using 410 k-points
  Data is distributed by G-vector(1-way) and k-point(16-way) and band(1-way)

 Efield perturbation    2:  Y                                           552.58s

 Efield perturbation    3:  Z                                           559.89s
  Parallel strategy changed for perturbation using 230 k-points
  Data is distributed by G-vector(8-way) and k-point(2-way) and band(1-way)
 + Mode number:   9 completed;                   time taken:    93.85 seconds +
 + Mode    10: performing Raman intensity calculation                         +

 Efield perturbation    1:  X                                           580.05s

 Efield perturbation    2:  Y                                           591.48s
  Parallel strategy changed for perturbation using 410 k-points
  Data is distributed by G-vector(1-way) and k-point(16-way) and band(1-way)

 Efield perturbation    3:  Z                                           601.98s
  Parallel strategy changed for perturbation using 224 k-points
  Data is distributed by G-vector(1-way) and k-point(16-way) and band(1-way)

 Efield perturbation    1:  X                                           615.94s

 Efield perturbation    2:  Y                                           627.72s
  Parallel strategy changed for perturbation using 410 k-points
  Data is distributed by G-vector(1-way) and k-point(16-way) and band(1-way)

 Efield perturbation    3:  Z                                           638.17s
  Parallel strategy changed for perturbation using 224 k-points
  Data is distributed by G-vector(1-way) and k-point(16-way) and band(1-way)
 + Mode number:  10 completed;                   time taken:    72.61 seconds +
 + Mode    11: performing Raman intensity calculation                         +

 Efield perturbation    1:  X                                           655.26s
  Parallel strategy changed for perturbation using 410 k-points
  Data is distributed by G-vector(1-way) and k-point(16-way) and band(1-way)

 Efield perturbation    2:  Y                                           665.59s
  Parallel strategy changed for perturbation using 236 k-points
  Data is distributed by G-vector(4-way) and k-point(4-way) and band(1-way)

 Efield perturbation    3:  Z                                           681.14s

 Efield perturbation    1:  X                                           698.01s
  Parallel strategy changed for perturbation using 410 k-points
  Data is distributed by G-vector(1-way) and k-point(16-way) and band(1-way)

 Efield perturbation    2:  Y                                           708.44s
  Parallel strategy changed for perturbation using 236 k-points
  Data is distributed by G-vector(4-way) and k-point(4-way) and band(1-way)

 Efield perturbation    3:  Z                                           724.14s
 + Mode number:  11 completed;                   time taken:    86.57 seconds +
 + Mode    12: performing Raman intensity calculation                         +

 Efield perturbation    1:  X                                           739.08s
  Parallel strategy changed for perturbation using 224 k-points
  Data is distributed by G-vector(1-way) and k-point(16-way) and band(1-way)

 Efield perturbation    2:  Y                                           747.69s
  Parallel strategy changed for perturbation using 236 k-points
  Data is distributed by G-vector(1-way) and k-point(16-way) and band(1-way)

 Efield perturbation    3:  Z                                           756.03s
  Parallel strategy changed for perturbation using 140 k-points
  Data is distributed by G-vector(4-way) and k-point(4-way) and band(1-way)

 Efield perturbation    1:  X                                           770.28s
  Parallel strategy changed for perturbation using 224 k-points
  Data is distributed by G-vector(1-way) and k-point(16-way) and band(1-way)

 Efield perturbation    2:  Y                                           778.98s
  Parallel strategy changed for perturbation using 236 k-points
  Data is distributed by G-vector(1-way) and k-point(16-way) and band(1-way)

 Efield perturbation    3:  Z                                           787.31s
  Parallel strategy changed for perturbation using 140 k-points
  Data is distributed by G-vector(4-way) and k-point(4-way) and band(1-way)
 + Mode number:  12 completed;                   time taken:    62.96 seconds +
 + Mode    13: performing Raman intensity calculation                         +

 Efield perturbation    1:  X                                           806.57s
  Parallel strategy changed for perturbation using 410 k-points
  Data is distributed by G-vector(1-way) and k-point(16-way) and band(1-way)

 Efield perturbation    2:  Y                                           822.21s

 Efield perturbation    3:  Z                                           829.49s
  Parallel strategy changed for perturbation using 230 k-points
  Data is distributed by G-vector(8-way) and k-point(2-way) and band(1-way)

 Efield perturbation    1:  X                                           853.12s
  Parallel strategy changed for perturbation using 410 k-points
  Data is distributed by G-vector(1-way) and k-point(16-way) and band(1-way)

 Efield perturbation    2:  Y                                           868.92s

 Efield perturbation    3:  Z                                           876.23s
  Parallel strategy changed for perturbation using 230 k-points
  Data is distributed by G-vector(8-way) and k-point(2-way) and band(1-way)
 + Mode number:  13 completed;                   time taken:    94.17 seconds +
 + Mode    14: performing Raman intensity calculation                         +

 Efield perturbation    1:  X                                           896.41s

 Efield perturbation    2:  Y                                           907.87s
  Parallel strategy changed for perturbation using 410 k-points
  Data is distributed by G-vector(1-way) and k-point(16-way) and band(1-way)

 Efield perturbation    3:  Z                                           918.32s
  Parallel strategy changed for perturbation using 224 k-points
  Data is distributed by G-vector(1-way) and k-point(16-way) and band(1-way)

 Efield perturbation    1:  X                                           932.63s

 Efield perturbation    2:  Y                                           944.03s
  Parallel strategy changed for perturbation using 410 k-points
  Data is distributed by G-vector(1-way) and k-point(16-way) and band(1-way)

 Efield perturbation    3:  Z                                           954.38s
  Parallel strategy changed for perturbation using 224 k-points
  Data is distributed by G-vector(1-way) and k-point(16-way) and band(1-way)
 + Mode number:  14 completed;                   time taken:    72.39 seconds +
 + Mode    15: performing Raman intensity calculation                         +

 Efield perturbation    1:  X                                           973.20s
  Parallel strategy changed for perturbation using 410 k-points
  Data is distributed by G-vector(1-way) and k-point(16-way) and band(1-way)

 Efield perturbation    2:  Y                                           989.09s

 Efield perturbation    3:  Z                                           996.39s
  Parallel strategy changed for perturbation using 230 k-points
  Data is distributed by G-vector(8-way) and k-point(2-way) and band(1-way)

 Efield perturbation    1:  X                                          1019.98s
  Parallel strategy changed for perturbation using 410 k-points
  Data is distributed by G-vector(1-way) and k-point(16-way) and band(1-way)

 Efield perturbation    2:  Y                                          1035.66s

 Efield perturbation    3:  Z                                          1042.96s
  Parallel strategy changed for perturbation using 230 k-points
  Data is distributed by G-vector(8-way) and k-point(2-way) and band(1-way)
 + Mode number:  15 completed;                   time taken:    94.41 seconds +
 + Mode    16: performing Raman intensity calculation                         +

 Efield perturbation    1:  X                                          1062.99s
  Parallel strategy changed for perturbation using 224 k-points
  Data is distributed by G-vector(1-way) and k-point(16-way) and band(1-way)

 Efield perturbation    2:  Y                                          1071.58s
  Parallel strategy changed for perturbation using 236 k-points
  Data is distributed by G-vector(1-way) and k-point(16-way) and band(1-way)

 Efield perturbation    3:  Z                                          1079.96s
  Parallel strategy changed for perturbation using 140 k-points
  Data is distributed by G-vector(4-way) and k-point(4-way) and band(1-way)

 Efield perturbation    1:  X                                          1094.23s
  Parallel strategy changed for perturbation using 224 k-points
  Data is distributed by G-vector(1-way) and k-point(16-way) and band(1-way)

 Efield perturbation    2:  Y                                          1102.88s
  Parallel strategy changed for perturbation using 236 k-points
  Data is distributed by G-vector(1-way) and k-point(16-way) and band(1-way)

 Efield perturbation    3:  Z                                          1111.19s
  Parallel strategy changed for perturbation using 140 k-points
  Data is distributed by G-vector(4-way) and k-point(4-way) and band(1-way)
 + Mode number:  16 completed;                   time taken:    63.01 seconds +
 + Mode    17: performing Raman intensity calculation                         +

 Efield perturbation    1:  X                                          1129.39s
  Parallel strategy changed for perturbation using 410 k-points
  Data is distributed by G-vector(1-way) and k-point(16-way) and band(1-way)

 Efield perturbation    2:  Y                                          1139.97s
  Parallel strategy changed for perturbation using 236 k-points
  Data is distributed by G-vector(4-way) and k-point(4-way) and band(1-way)

 Efield perturbation    3:  Z                                          1155.74s

 Efield perturbation    1:  X                                          1172.83s
  Parallel strategy changed for perturbation using 410 k-points
  Data is distributed by G-vector(1-way) and k-point(16-way) and band(1-way)

 Efield perturbation    2:  Y                                          1183.29s
  Parallel strategy changed for perturbation using 236 k-points
  Data is distributed by G-vector(4-way) and k-point(4-way) and band(1-way)

 Efield perturbation    3:  Z                                          1199.04s
 + Mode number:  17 completed;                   time taken:    88.10 seconds +
 + Mode    18: performing Raman intensity calculation                         +

 Efield perturbation    1:  X                                          1218.68s
  Parallel strategy changed for perturbation using 410 k-points
  Data is distributed by G-vector(1-way) and k-point(16-way) and band(1-way)

 Efield perturbation    2:  Y                                          1234.27s

 Efield perturbation    3:  Z                                          1241.61s
  Parallel strategy changed for perturbation using 230 k-points
  Data is distributed by G-vector(8-way) and k-point(2-way) and band(1-way)

 Efield perturbation    1:  X                                          1265.39s
  Parallel strategy changed for perturbation using 410 k-points
  Data is distributed by G-vector(1-way) and k-point(16-way) and band(1-way)

 Efield perturbation    2:  Y                                          1281.06s

 Efield perturbation    3:  Z                                          1288.34s
  Parallel strategy changed for perturbation using 230 k-points
  Data is distributed by G-vector(8-way) and k-point(2-way) and band(1-way)
 + Mode number:  18 completed;                   time taken:    94.31 seconds +
 + Mode    19: performing Raman intensity calculation                         +

 Efield perturbation    1:  X                                          1311.30s
  Parallel strategy changed for perturbation using 410 k-points
  Data is distributed by G-vector(1-way) and k-point(16-way) and band(1-way)

 Efield perturbation    2:  Y                                          1321.64s
  Parallel strategy changed for perturbation using 236 k-points
  Data is distributed by G-vector(4-way) and k-point(4-way) and band(1-way)

 Efield perturbation    3:  Z                                          1337.44s

 Efield perturbation    1:  X                                          1354.41s
  Parallel strategy changed for perturbation using 410 k-points
  Data is distributed by G-vector(1-way) and k-point(16-way) and band(1-way)

 Efield perturbation    2:  Y                                          1364.73s
  Parallel strategy changed for perturbation using 236 k-points
  Data is distributed by G-vector(4-way) and k-point(4-way) and band(1-way)

 Efield perturbation    3:  Z                                          1380.47s
 + Mode number:  19 completed;                   time taken:    87.05 seconds +
 + Mode    20: performing Raman intensity calculation                         +

 Efield perturbation    1:  X                                          1395.69s

 Efield perturbation    2:  Y                                          1407.24s
  Parallel strategy changed for perturbation using 410 k-points
  Data is distributed by G-vector(1-way) and k-point(16-way) and band(1-way)

 Efield perturbation    3:  Z                                          1417.63s
  Parallel strategy changed for perturbation using 224 k-points
  Data is distributed by G-vector(1-way) and k-point(16-way) and band(1-way)

 Efield perturbation    1:  X                                          1431.77s

 Efield perturbation    2:  Y                                          1443.13s
  Parallel strategy changed for perturbation using 410 k-points
  Data is distributed by G-vector(1-way) and k-point(16-way) and band(1-way)

 Efield perturbation    3:  Z                                          1453.74s
  Parallel strategy changed for perturbation using 224 k-points
  Data is distributed by G-vector(1-way) and k-point(16-way) and band(1-way)
 + Mode number:  20 completed;                   time taken:    72.47 seconds +
 + Mode    21: performing Raman intensity calculation                         +

 Efield perturbation    1:  X                                          1467.97s
  Parallel strategy changed for perturbation using 224 k-points
  Data is distributed by G-vector(1-way) and k-point(16-way) and band(1-way)

 Efield perturbation    2:  Y                                          1476.56s
  Parallel strategy changed for perturbation using 236 k-points
  Data is distributed by G-vector(1-way) and k-point(16-way) and band(1-way)

 Efield perturbation    3:  Z                                          1484.90s
  Parallel strategy changed for perturbation using 140 k-points
  Data is distributed by G-vector(4-way) and k-point(4-way) and band(1-way)

 Efield perturbation    1:  X                                          1499.23s
  Parallel strategy changed for perturbation using 224 k-points
  Data is distributed by G-vector(1-way) and k-point(16-way) and band(1-way)

 Efield perturbation    2:  Y                                          1507.87s
  Parallel strategy changed for perturbation using 236 k-points
  Data is distributed by G-vector(1-way) and k-point(16-way) and band(1-way)

 Efield perturbation    3:  Z                                          1516.20s
  Parallel strategy changed for perturbation using 140 k-points
  Data is distributed by G-vector(4-way) and k-point(4-way) and band(1-way)
 + Mode number:  21 completed;                   time taken:    63.16 seconds +
 + Mode    22: performing Raman intensity calculation                         +

 Efield perturbation    1:  X                                          1531.29s

 Efield perturbation    2:  Y                                          1543.09s
  Parallel strategy changed for perturbation using 410 k-points
  Data is distributed by G-vector(1-way) and k-point(16-way) and band(1-way)

 Efield perturbation    3:  Z                                          1553.58s
  Parallel strategy changed for perturbation using 224 k-points
  Data is distributed by G-vector(1-way) and k-point(16-way) and band(1-way)

 Efield perturbation    1:  X                                          1567.52s

 Efield perturbation    2:  Y                                          1578.93s
  Parallel strategy changed for perturbation using 410 k-points
  Data is distributed by G-vector(1-way) and k-point(16-way) and band(1-way)

 Efield perturbation    3:  Z                                          1589.32s
  Parallel strategy changed for perturbation using 224 k-points
  Data is distributed by G-vector(1-way) and k-point(16-way) and band(1-way)
 + Mode number:  22 completed;                   time taken:    72.42 seconds +
 + Mode    23: performing Raman intensity calculation                         +

 Efield perturbation    1:  X                                          1608.09s
  Parallel strategy changed for perturbation using 410 k-points
  Data is distributed by G-vector(1-way) and k-point(16-way) and band(1-way)

 Efield perturbation    2:  Y                                          1623.96s

 Efield perturbation    3:  Z                                          1631.24s
  Parallel strategy changed for perturbation using 230 k-points
  Data is distributed by G-vector(8-way) and k-point(2-way) and band(1-way)

 Efield perturbation    1:  X                                          1654.89s
  Parallel strategy changed for perturbation using 410 k-points
  Data is distributed by G-vector(1-way) and k-point(16-way) and band(1-way)

 Efield perturbation    2:  Y                                          1670.52s

 Efield perturbation    3:  Z                                          1677.83s
  Parallel strategy changed for perturbation using 230 k-points
  Data is distributed by G-vector(8-way) and k-point(2-way) and band(1-way)
 + Mode number:  23 completed;                   time taken:    94.35 seconds +
 + Mode    24: performing Raman intensity calculation                         +

 Efield perturbation    1:  X                                          1700.74s
  Parallel strategy changed for perturbation using 410 k-points
  Data is distributed by G-vector(1-way) and k-point(16-way) and band(1-way)

 Efield perturbation    2:  Y                                          1711.09s
  Parallel strategy changed for perturbation using 236 k-points
  Data is distributed by G-vector(4-way) and k-point(4-way) and band(1-way)

 Efield perturbation    3:  Z                                          1727.11s

 Efield perturbation    1:  X                                          1744.27s
  Parallel strategy changed for perturbation using 410 k-points
  Data is distributed by G-vector(1-way) and k-point(16-way) and band(1-way)

 Efield perturbation    2:  Y                                          1754.57s
  Parallel strategy changed for perturbation using 236 k-points
  Data is distributed by G-vector(4-way) and k-point(4-way) and band(1-way)

 Efield perturbation    3:  Z                                          1770.52s
 + Mode number:  24 completed;                   time taken:    87.69 seconds +
 +----------------------------------------------------------------------------+
 +   E N D    O F    R A M A N    I N T E N S I T Y    C A L C U L A T I O N  +
 +         Raman intensity calculation completed in    1676.38 seconds        +
 +============================================================================+
 + -------------------------------------------------------------------------- +
 +  q-pt=    1 (  0.000000  0.000000  0.000000)     1.0000000000              +
 + -------------------------------------------------------------------------- +
 +  Acoustic sum rule correction <   8.329327 cm-1 applied                    +
 +     N      Frequency irrep.    ir intensity active  raman activity  active + 
 +                (cm-1)         ((D/A)**2/amu)              (A**4/amu)       + 
 +                                                                            +
 +     1      -0.172531   a          0.0000000  N            0.0000000  N     + 
 +     2      -0.140871   b          0.0000000  N            0.0000000  N     + 
 +     3      -0.099611   c          0.0000000  N            0.0000000  N     + 
 +     4     276.958797   c          0.0508188  Y           64.6535692  Y     + 
 +     5     359.364503   a          0.0035517  Y          267.6487400  Y     + 
 +     6     389.915765   a          0.0004355  Y          289.2428932  Y     + 
 +     7     394.094836   d          0.0000000  N           66.7205555  Y     + 
 +     8     485.002820   b          0.0804404  Y           45.3348749  Y     + 
 +     9     531.670300   d          0.0000000  N            0.1531464  Y     + 
 +    10     570.946873   b          0.5711946  Y           10.3956397  Y     + 
 +    11     654.715568   c          0.0283297  Y           19.8036930  Y     + 
 +    12     676.178145   a          0.6548626  Y            3.0927977  Y     + 
 +    13     695.274702   d          0.0000000  N            7.3679347  Y     + 
 +    14     708.209819   b          0.0945569  Y           13.6675514  Y     + 
 +    15     741.254128   d          0.0000000  N            0.8196935  Y     + 
 +    16     881.111631   a          0.5201598  Y            1.6784597  Y     + 
 +    17     949.719199   c          0.5768027  Y            0.6994923  Y     + 
 +    18    1073.054881   d          0.0000000  N            6.3627994  Y     + 
 +    19    1169.965143   c          0.3441364  Y            0.0506343  Y     + 
 +    20    1241.060985   b          0.3301480  Y            0.1166449  Y     + 
 +    21    4265.191919   a          0.0750796  Y         7981.0462257  Y     + 
 +    22    4416.102805   b          0.0034924  Y           96.4437335  Y     + 
 +    23    4425.389830   d          0.0000000  N          160.0267370  Y     + 
 +    24    4469.253163   c          0.0173872  Y          105.7036489  Y     + 
 + .......................................................................... +
 +        Character table from group theory analysis of eigenvectors          +
 +                           Point Group =   6, C2v                           +
 + .......................................................................... +
 +  Rep  Mul |    E   2   m   m                                               +
 +           | ----------------                                               +
 + a A1    6 |    1   1   1   1                                               +
 + b B1    6 |    1  -1  -1   1                                               +
 + c B2    6 |    1  -1   1  -1                                               +
 + d A2    6 |    1   1  -1  -1                                               +
 + -------------------------------------------------------------------------- +
 +  q-pt=    1 (  0.000000  0.000000  0.000000)     1.0000000000              +
 +  q->0 along (  0.000000  0.000000  1.000000)                               +
 + -------------------------------------------------------------------------- +
 +  Acoustic sum rule correction <   8.329327 cm-1 applied                    +
 +     N      Frequency irrep.    ir intensity active            raman active + 
 +                (cm-1)         ((D/A)**2/amu)                               + 
 +                                                                            +
 +     1      -0.171974   a          0.0000000  N                       N     + 
 +     2      -0.140871   b          0.0000000  N                       N     + 
 +     3      -0.099611   c          0.0000000  N                       N     + 
 +     4     276.958797   c          0.0508188  Y                       Y     + 
 +     5     359.472364   a          0.0031273  Y                       Y     + 
 +     6     389.927954   a          0.0003834  Y                       Y     + 
 +     7     394.094836   d          0.0000000  N                       Y     + 
 +     8     485.002820   b          0.0804404  Y                       Y     + 
 +     9     531.670300   d          0.0000000  N                       Y     + 
 +    10     570.946873   b          0.5711946  Y                       Y     + 
 +    11     654.715568   c          0.0283297  Y                       Y     + 
 +    12     686.929433   a          0.6048395  Y                       Y     + 
 +    13     695.274702   d          0.0000000  N                       Y     + 
 +    14     708.209819   b          0.0945569  Y                       Y     + 
 +    15     741.254128   d          0.0000000  N                       Y     + 
 +    16     888.280276   a          0.5704248  Y                       Y     + 
 +    17     949.719199   c          0.5768027  Y                       Y     + 
 +    18    1073.054881   d          0.0000000  N                       Y     + 
 +    19    1169.965143   c          0.3441364  Y                       Y     + 
 +    20    1241.060985   b          0.3301480  Y                       Y     + 
 +    21    4265.396995   a          0.0753143  Y                       Y     + 
 +    22    4416.102805   b          0.0034924  Y                       Y     + 
 +    23    4425.389830   d          0.0000000  N                       Y     + 
 +    24    4469.253163   c          0.0173872  Y                       Y     + 
 + .......................................................................... +
 +        Character table from group theory analysis of eigenvectors          +
 +                           Point Group =   6, C2v                           +
 + (Due to LO/TO splitting this character table may not contain some symmetry +
 +  operations of the full crystallographic point group.  Additional          +
 +  representations may be also be present corresponding to split LO modes.   +
 +  A conventional analysis can be generated by specifying an additional null +
 +  (all zero) field direction or one along any unique crystallographic axis  +
 +  in %BLOCK PHONON_GAMMA_DIRECTIONS in <seedname>.cell.)                    +
 + .......................................................................... +
 +  Rep  Mul |    E   2   m   m                                               +
 +           | ----------------                                               +
 + a A1    6 |    1   1   1   1                                               +
 + b B1    6 |    1  -1  -1   1                                               +
 + c B2    6 |    1  -1   1  -1                                               +
 + d A2    6 |    1   1  -1  -1                                               +
 ==============================================================================
 ===================================================
                   Born Effective Charges
                   ----------------------
   H       1         0.01003     0.05567     0.04423
                     0.04579    -0.00619     0.04482
                     0.04209     0.03665    -0.01102
   H       2        -0.01003     0.05347     0.06074
                     0.07464     0.00619     0.07615
                     0.04639     0.06110     0.01102
   H       3        -0.01003    -0.05347     0.06074
                    -0.07464     0.00619    -0.07615
                     0.04639    -0.06110     0.01102
   H       4         0.01003    -0.05567     0.04423
                    -0.04579    -0.00619    -0.04482
                     0.04209    -0.03665    -0.01102
   H       5        -0.01003    -0.05347    -0.06074
                    -0.07464     0.00619     0.07615
                    -0.04639     0.06110     0.01102
   H       6         0.01003    -0.05567    -0.04423
                    -0.04579    -0.00619     0.04482
                    -0.04209     0.03665    -0.01102
   H       7        -0.01003     0.05347    -0.06074
                     0.07464     0.00619    -0.07615
                    -0.04639    -0.06110     0.01102
   H       8         0.01003     0.05567    -0.04423
                     0.04579    -0.00619    -0.04482
                    -0.04209    -0.03665    -0.01102
 ===================================================
  
 ==============================================================================
 +                      Raman Susceptibility Tensors ((A/amu)*0.5)            +
 +----------------------------------------------------------------------------+
 + Mode number:   1 Raman tensor       Depolarisation Ratio                   +
 +     0.0000    0.0000    0.0000      0.000000                               +
 +     0.0000    0.0000    0.0000                                             +
 +     0.0000    0.0000    0.0000                                             +
 +                                                                            +
 + Mode number:   2 Raman tensor       Depolarisation Ratio                   +
 +     0.0000    0.0000    0.0000      0.000000                               +
 +     0.0000    0.0000    0.0000                                             +
 +     0.0000    0.0000    0.0000                                             +
 +                                                                            +
 + Mode number:   3 Raman tensor       Depolarisation Ratio                   +
 +     0.0000    0.0000    0.0000      0.000000                               +
 +     0.0000    0.0000    0.0000                                             +
 +     0.0000    0.0000    0.0000                                             +
 +                                                                            +
 + Mode number:   4 Raman tensor       Depolarisation Ratio                   +
 +    -0.0000    0.0000    0.0000      0.750000                               +
 +     0.0000   -0.0000   -0.3580                                             +
 +     0.0000   -0.3580   -0.0000                                             +
 +                                                                            +
 + Mode number:   5 Raman tensor       Depolarisation Ratio                   +
 +    -0.8661    0.0000    0.0000      0.746347                               +
 +     0.0000    0.3985    0.0000                                             +
 +     0.0000    0.0000    0.3888                                             +
 +                                                                            +
 + Mode number:   6 Raman tensor       Depolarisation Ratio                   +
 +     0.0853    0.0000    0.0000      0.742695                               +
 +     0.0000    0.7693    0.0000                                             +
 +     0.0000    0.0000   -0.7386                                             +
 +                                                                            +
 + Mode number:   7 Raman tensor       Depolarisation Ratio                   +
 +    -0.0000   -0.3636    0.0000      0.750000                               +
 +    -0.3636   -0.0000    0.0000                                             +
 +     0.0000    0.0000    0.0000                                             +
 +                                                                            +
 + Mode number:   8 Raman tensor       Depolarisation Ratio                   +
 +    -0.0000    0.0000    0.2997      0.750000                               +
 +     0.0000    0.0000    0.0000                                             +
 +     0.2997    0.0000   -0.0000                                             +
 +                                                                            +
 + Mode number:   9 Raman tensor       Depolarisation Ratio                   +
 +     0.0000   -0.0174    0.0000      0.750000                               +
 +    -0.0174   -0.0000    0.0000                                             +
 +     0.0000    0.0000   -0.0000                                             +
 +                                                                            +
 + Mode number:  10 Raman tensor       Depolarisation Ratio                   +
 +    -0.0000    0.0000    0.1435      0.750000                               +
 +     0.0000   -0.0000    0.0000                                             +
 +     0.1435    0.0000    0.0000                                             +
 +                                                                            +
 + Mode number:  11 Raman tensor       Depolarisation Ratio                   +
 +    -0.0000    0.0000    0.0000      0.750000                               +
 +     0.0000   -0.0000   -0.1981                                             +
 +     0.0000   -0.1981    0.0000                                             +
 +                                                                            +
 + Mode number:  12 Raman tensor       Depolarisation Ratio                   +
 +     0.0906    0.0000    0.0000      0.749131                               +
 +     0.0000   -0.0307    0.0000                                             +
 +     0.0000    0.0000   -0.0558                                             +
 +                                                                            +
 + Mode number:  13 Raman tensor       Depolarisation Ratio                   +
 +     0.0000   -0.1208    0.0000      0.750000                               +
 +    -0.1208   -0.0000    0.0000                                             +
 +     0.0000    0.0000   -0.0000                                             +
 +                                                                            +
 + Mode number:  14 Raman tensor       Depolarisation Ratio                   +
 +    -0.0000    0.0000    0.1646      0.750000                               +
 +     0.0000   -0.0000    0.0000                                             +
 +     0.1646    0.0000    0.0000                                             +
 +                                                                            +
 + Mode number:  15 Raman tensor       Depolarisation Ratio                   +
 +    -0.0000   -0.0403    0.0000      0.750000                               +
 +    -0.0403   -0.0000    0.0000                                             +
 +     0.0000    0.0000    0.0000                                             +
 +                                                                            +
 + Mode number:  16 Raman tensor       Depolarisation Ratio                   +
 +    -0.0182    0.0000    0.0000      0.444208                               +
 +     0.0000   -0.0711    0.0000                                             +
 +     0.0000    0.0000    0.0265                                             +
 +                                                                            +
 + Mode number:  17 Raman tensor       Depolarisation Ratio                   +
 +    -0.0000    0.0000    0.0000      0.750000                               +
 +     0.0000   -0.0000    0.0372                                             +
 +     0.0000    0.0372   -0.0000                                             +
 +                                                                            +
 + Mode number:  18 Raman tensor       Depolarisation Ratio                   +
 +    -0.0000    0.1123    0.0000      0.750000                               +
 +     0.1123    0.0000    0.0000                                             +
 +     0.0000    0.0000   -0.0000                                             +
 +                                                                            +
 + Mode number:  19 Raman tensor       Depolarisation Ratio                   +
 +    -0.0000    0.0000    0.0000      0.750000                               +
 +     0.0000    0.0000    0.0100                                             +
 +     0.0000    0.0100    0.0000                                             +
 +                                                                            +
 + Mode number:  20 Raman tensor       Depolarisation Ratio                   +
 +    -0.0000    0.0000   -0.0152      0.750000                               +
 +     0.0000   -0.0000    0.0000                                             +
 +    -0.0152    0.0000   -0.0000                                             +
 +                                                                            +
 + Mode number:  21 Raman tensor       Depolarisation Ratio                   +
 +     2.7329    0.0000    0.0000      0.000053                               +
 +     0.0000    2.7504    0.0000                                             +
 +     0.0000    0.0000    2.6669                                             +
 +                                                                            +
 + Mode number:  22 Raman tensor       Depolarisation Ratio                   +
 +    -0.0000    0.0000    0.4372      0.750000                               +
 +     0.0000    0.0000    0.0000                                             +
 +     0.4372    0.0000   -0.0000                                             +
 +                                                                            +
 + Mode number:  23 Raman tensor       Depolarisation Ratio                   +
 +    -0.0000    0.5632    0.0000      0.750000                               +
 +     0.5632   -0.0000    0.0000                                             +
 +     0.0000    0.0000   -0.0000                                             +
 +                                                                            +
 + Mode number:  24 Raman tensor       Depolarisation Ratio                   +
 +    -0.0000    0.0000    0.0000      0.750000                               +
 +     0.0000    0.0000    0.4577                                             +
 +     0.0000    0.4577   -0.0000                                             +
 +                                                                            +
 +----------------------------------------------------------------------------+
  

 ******************** Symmetrised Forces ********************
 *                                                          *
 *               Cartesian components (eV/A)                *
 * -------------------------------------------------------- *
 *                         x            y            z      *
 *                                                          *
 * H               1      0.00000     -0.00000     -0.00000 *
 * H               2      0.00000     -0.00000      0.00000 *
 * H               3      0.00000      0.00000      0.00000 *
 * H               4      0.00000      0.00000     -0.00000 *
 * H               5     -0.00000     -0.00000      0.00000 *
 * H               6     -0.00000     -0.00000     -0.00000 *
 * H               7     -0.00000      0.00000      0.00000 *
 * H               8     -0.00000      0.00000     -0.00000 *
 *                                                          *
 ************************************************************

 *********** Symmetrised Stress Tensor ***********
 *                                               *
 *          Cartesian components (GPa)           *
 * --------------------------------------------- *
 *             x             y             z     *
 *                                               *
 *  x    -50.006331      0.000000      0.000000  *
 *  y      0.000000    -50.006336      0.000000  *
 *  z      0.000000      0.000000    -50.006332  *
 *                                               *
 *  Pressure:   50.0063                          *
 *                                               *
 *************************************************

 Pseudo atomic calculation performed for H 1s1

 Converged in 24 iterations to a total energy of -12.4843 eV

Charge spilling parameter for spin component 1 = 0.64%

            Orbital Populations       
     Ion    Atom   Orbital             Charge
  -------------------------------------------
      H     1      S                    1.004
      H     2      S                    0.999
      H     3      S                    1.004
      H     4      S                    0.996
      H     5      S                    1.002
      H     6      S                    0.996
      H     7      S                    0.998
      H     8      S                    1.002
  -------------------------------------------
                           Total:       8.000
  -------------------------------------------

     Atomic Populations (Mulliken)
     -----------------------------
Species          Ion     s      p      d      f     Total  Charge (e)
=====================================================================
  H               1     1.00   0.00   0.00   0.00   1.00     0.00
  H               2     1.00   0.00   0.00   0.00   1.00    -0.00
  H               3     1.00   0.00   0.00   0.00   1.00    -0.00
  H               4     1.00   0.00   0.00   0.00   1.00     0.00
  H               5     1.00   0.00   0.00   0.00   1.00    -0.00
  H               6     1.00   0.00   0.00   0.00   1.00     0.00
  H               7     1.00   0.00   0.00   0.00   1.00    -0.00
  H               8     1.00   0.00   0.00   0.00   1.00     0.00
=====================================================================

                 Bond                   Population      Length (A)
======================================================================
               H 5 -- H 6                    1.32        0.73642
               H 1 -- H 2                    1.32        0.73642
               H 3 -- H 4                    1.32        0.73642
               H 7 -- H 8                    1.32        0.73642
               H 3 -- H 6                   -0.23        1.72170
               H 1 -- H 7                   -0.23        1.72170
               H 4 -- H 5                   -0.23        1.72170
               H 2 -- H 8                   -0.23        1.72170
               H 1 -- H 3                   -0.21        1.73604
               H 6 -- H 7                   -0.21        1.73604
               H 2 -- H 4                   -0.21        1.73604
               H 5 -- H 8                   -0.21        1.73604
               H 3 -- H 5                   -0.21        1.75068
               H 2 -- H 7                   -0.21        1.75068
               H 1 -- H 5                   -0.10        1.77614
               H 4 -- H 7                   -0.10        1.77614
               H 2 -- H 6                   -0.10        1.77614
               H 3 -- H 8                   -0.10        1.77614
               H 4 -- H 8                   -0.08        1.80770
               H 1 -- H 6                   -0.08        1.80770
               H 2 -- H 3                   -0.20        1.86504
               H 5 -- H 7                   -0.20        1.86504
               H 6 -- H 8                   -0.27        1.86735
               H 1 -- H 4                   -0.27        1.86735
               H 4 -- H 6                   -0.25        2.02308
               H 1 -- H 8                   -0.25        2.02308
======================================================================


Writing analysis data to Pca21.castep_bin

Writing model to Pca21.check
 
 A BibTeX formatted list of references used in this run has been written to 
 Pca21.bib
 
Initialisation time =      1.17 s
Calculation time    =   1780.06 s
Finalisation time   =      0.33 s
Total time          =   1781.55 s
Peak Memory Use     = 504416 kB
  
Overall parallel efficiency rating: Good (70%)                                  
  
Data was distributed by:-
G-vector (4-way); efficiency rating: Good (72%)                                 
k-point (4-way); efficiency rating: Excellent (98%)                             
