 +-------------------------------------------------+
 |                                                 |
 |      CCC   AA    SSS  TTTTT  EEEEE  PPPP        |
 |     C     A  A  S       T    E      P   P       |
 |     C     AAAA   SS     T    EEE    PPPP        |
 |     C     A  A     S    T    E      P           |
 |      CCC  A  A  SSS     T    EEEEE  P           |
 |                                                 |
 +-------------------------------------------------+
 |                                                 |
 | Welcome to Academic Release CASTEP version 18.1 |          
 | Ab Initio Total Energy Program                  |
 |                                                 |
 | Authors:                                        |
 | M. Segall, M. Probert, C. Pickard, P. Hasnip,   |
 | S. Clark, K. Refson, J. R. Yates, M. Payne      |
 |                                                 |
 | Contributors:                                   |
 | P. Lindan, P. Haynes, J. White, V. Milman,      |
 | N. Govind, M. Gibson, P. Tulip, V. Cocula,      |
 | B. Montanari, D. Quigley, M. Glover,            |
 | L. Bernasconi, A. Perlov, M. Plummer,           |
 | E. McNellis, J. Meyer, J. Gale, D. Jochym       |
 | J. Aarons, B. Walker, R. Gillen, D. Jones       |
 | T. Green, I. J. Bush, C. J. Armstrong,          |
 | E. J. Higgins, E. L. Brown, M. S. McFly,        |
 | J. Wilkins, B-C. Shih, P. J. P. Byrne           |
 |                                                 |
 | Copyright (c) 2000 - 2017                       |
 |                                                 |
 |     Distributed under the terms of an           |
 |     Agreement between the United Kingdom        |
 |     Car-Parrinello (UKCP) Consortium,           |
 |     Daresbury Laboratory and Accelrys, Inc.     |
 |                                                 |
 | Please cite                                     |
 |                                                 |
 |     "First principles methods using CASTEP"     |
 |                                                 |
 |         Zeitschrift fuer Kristallographie       |
 |           220(5-6) pp. 567-570 (2005)           |
 |                                                 |
 | S. J. Clark, M. D. Segall, C. J. Pickard,       |
 | P. J. Hasnip, M. J. Probert, K. Refson,         |
 | M. C. Payne                                     |
 |                                                 |
 |       in all publications arising from          |
 |              your use of CASTEP                 |
 |                                                 |
 +-------------------------------------------------+


 Compiled for linux_x86_64_gfortran4.8 on Thu, 19 Jul 2018 15:42:32 +0100
 from code version 70483bd0ad64+  Sun, 10 Dec 2017 12:18:29 +0000
 Compiler: GNU Fortran 4.8.5; Optimisation: fast
 MATHLIBS: Intel MKL(2018.0.0) (LAPACK version 3.7.0)
 FFT Lib : mkl
 Fundamental constants values: CODATA 2014

 Run started: Thu, 27 Aug 2020 12:15:38 +0100

 Atomic calculation performed for H: 1s1

 Converged in 41 iterations to an ae energy of -12.488 eV

   ============================================================                
   | Pseudopotential Report - Date of generation 27-08-2020   |                
   ------------------------------------------------------------                
   | Element: H Ionic charge:  1.00 Level of theory: PBE      |                
   | Atomic Solver: Koelling-Harmon                           |                
   |                                                          |                
   |               Reference Electronic Structure             |                
   |         Orbital         Occupation         Energy        |                
   |            1s              1.000           -0.239        |                
   |                                                          |                
   |                 Pseudopotential Definition               |                
   |        Beta     l      e      Rc     scheme   norm       |                
   |         loc     0   -0.239   0.702     qc      1         |                
   |                                                          |                
   | No charge augmentation                                   |                
   | No partial core correction                               |                
   ------------------------------------------------------------                
   | "0|0.7|2|6|8|10L(qc=10)"                                 |                
   ------------------------------------------------------------                
   |      Author: Chris J. Pickard, Cambridge University      |                
   ============================================================                

 Pseudo atomic calculation performed for H 1s1

 Converged in 24 iterations to a total energy of -12.4855 eV

 Calculation parallelised over 32 processes.
 Data is distributed by k-point(32-way)

 ************************************ Title ************************************
 

 ***************************** General Parameters ******************************
  
 output verbosity                               : normal  (1)
 write checkpoint data to                       : Cmca4.check
 type of calculation                            : geometry optimization
 stress calculation                             : on
 density difference calculation                 : off
 electron localisation func (ELF) calculation   : off
 Hirshfeld analysis                             : off
 unlimited duration calculation
 timing information                             : on
 memory usage estimate                          : on
 write extra output files                       : on
 write final potential to formatted file        : off
 write final density to formatted file          : off
 write structure in CELL formatted file         : on
 write BibTeX reference list                    : on
 write OTFG pseudopotential files               : on
 write electrostatic potential file             : on
 write bands file                               : on
 checkpoint writing                             : both castep_bin and check files
  
 output         length unit                     : A
 output           mass unit                     : amu
 output           time unit                     : ps
 output         charge unit                     : e
 output           spin unit                     : hbar/2
 output         energy unit                     : eV
 output          force unit                     : eV/A
 output       velocity unit                     : A/ps
 output       pressure unit                     : GPa
 output     inv_length unit                     : 1/A
 output      frequency unit                     : cm-1
 output force constant unit                     : eV/A**2
 output         volume unit                     : A**3
 output   IR intensity unit                     : (D/A)**2/amu
 output         dipole unit                     : D
 output         efield unit                     : eV/A/e
 output        entropy unit                     : J/mol/K
  
 wavefunctions paging                           : none
 random number generator seed                   : randomised (121539037)
 data distribution                              : optimal for this architecture
 optimization strategy                          : maximize speed(+++)

 *********************** Exchange-Correlation Parameters ***********************
  
 using functional                               : Perdew Burke Ernzerhof
 relativistic treatment                         : Koelling-Harmon
 DFT+D: Semi-empirical dispersion correction    : off

 ************************* Pseudopotential Parameters **************************
  
 pseudopotential representation                 : reciprocal space
 <beta|phi> representation                      : reciprocal space
 spin-orbit coupling                            : off

 **************************** Basis Set Parameters *****************************
  
 plane wave basis set cut-off                   :  1600.0000   eV
 size of standard grid                          :     2.0000
 size of   fine   gmax                          :    40.9853   1/A
 finite basis set correction                    : automatic
 number of sample energies                      :          3
           sample  spacing                      :     5.0000   eV

 **************************** Electronic Parameters ****************************
  
 number of  electrons                           :  8.000    
 net charge of system                           :  0.000    
 treating system as non-spin-polarized
 number of bands                                :          4

 ********************* Electronic Minimization Parameters **********************
  
 Method: Treating system as non-metallic,
         and number of  SD  steps               :          1
         and number of  CG  steps               :          4
  
 total energy / atom convergence tol.           : 0.1000E-10   eV
 eigen-energy convergence tolerance             : 0.2000E-10   eV
 max force / atom convergence tol.              : ignored
 convergence tolerance window                   :          3   cycles
 max. number of SCF cycles                      :        100
 periodic dipole correction                     : NONE

 ************************** Density Mixing Parameters **************************
  
 density-mixing scheme                          : Broyden
 max. length of mixing history                  :         20
 charge density mixing amplitude                : 0.8000    
 cut-off energy for mixing                      :  1600.       eV

 *********************** Population Analysis Parameters ************************
  
 Population analysis with cutoff                :  3.000       A
 Population analysis output                     : summary and pdos components

 ********************** Geometry Optimization Parameters ***********************
  
 optimization method                            : LBFGS
 max. no. of LBFGS updates                      : unbounded
 variable cell method                           : fixed basis quality
 max. number of steps                           :        200
 estimated bulk modulus                         :  500.0       GPa
 estimated <frequency>                          :  1668.       cm-1
 geom line minimiser                            : on
 with line minimiser tolerance                  :     0.4000
 total energy convergence tolerance             : 0.1000E-08   eV/atom
        max ionic |force| tolerance             : 0.1000E-04   eV/A
 max ionic |displacement| tolerance             : 0.1000E-04   A
   max |stress component| tolerance             : 0.1000E-04   GPa
 convergence tolerance window                   :          2   steps
 backup results every                           :      14400   seconds
 write geom trajectory file                     : on

 *******************************************************************************
  

                           -------------------------------
                                      Unit Cell
                           -------------------------------
        Real Lattice(A)                      Reciprocal Lattice(1/A)
     2.8444219     0.0000000     0.0000000        2.208949871  -0.000000000   0.000000000
     0.0000000     2.8144849     0.0000000       -0.000000000   2.232445910   0.000000000
     0.0000000     0.0000000     2.8332333        0.000000000   0.000000000   2.217673079

                       Lattice parameters(A)       Cell Angles
                    a =      2.844422          alpha =   90.000000
                    b =      2.814485          beta  =   90.000000
                    c =      2.833233          gamma =   90.000000

                       Current cell volume =            22.681683       A**3
                                   density =             0.355508   AMU/A**3
                                           =             0.590335     g/cm^3

                           -------------------------------
                                     Cell Contents
                           -------------------------------
                         Total number of ions in cell =    8
                      Total number of species in cell =    1
                        Max number of any one species =    8

            xxxxxxxxxxxxxxxxxxxxxxxxxxxxxxxxxxxxxxxxxxxxxxxxxxxxxxxxxxxx
            x  Element    Atom        Fractional coordinates of atoms  x
            x            Number           u          v          w      x
            x----------------------------------------------------------x
            x  H            1         0.000000   0.405693   0.410686   x 
            x  H            2         0.000000   0.094307   0.910686   x 
            x  H            3        -0.000000   0.905693   0.089314   x 
            x  H            4        -0.000000   0.594307   0.589314   x 
            x  H            5         0.500000   0.905693   0.410686   x 
            x  H            6         0.500000   0.594307   0.910686   x 
            x  H            7         0.500000   0.405693   0.089314   x 
            x  H            8         0.500000   0.094307   0.589314   x 
            xxxxxxxxxxxxxxxxxxxxxxxxxxxxxxxxxxxxxxxxxxxxxxxxxxxxxxxxxxxx


                         No user defined ionic velocities

                           -------------------------------
                                   Details of Species
                           -------------------------------

                               Mass of species in AMU
                                    H    1.0079400

                          Electric Quadrupole Moment (Barn)
                                    H    0.0028600 Isotope  2

                          Files used for pseudopotentials:
                                    H 0|0.7|2|6|8|10L(qc=10)

                           -------------------------------
                              k-Points For BZ Sampling
                           -------------------------------
                       MP grid size for SCF calculation is 18 18 18
                            with an offset of   0.000  0.000  0.000
                       Number of kpoints used =           729

                           -------------------------------
                               Symmetry and Constraints
                           -------------------------------

                      Cell is a supercell containing 2 primitive cells
                      Maximum deviation from symmetry = 0.292941E-14     ANG

                      Number of symmetry operations   =          16
                      Number of ionic constraints     =           3
                      Point group of crystal =     8: D2h, mmm, 2/m 2/m 2/m
                      Space group of crystal =    64: Cmce, -C 2bc 2

             Set iprint > 1 for details on symmetry rotations/translations

                         Centre of mass is constrained
             Set iprint > 1 for details of linear ionic constraints

                         Number of cell constraints= 3
                         Cell constraints are:  1 2 3 0 0 0

                         External pressure/stress (GPa)
                         50.00000   0.00000   0.00000
                                   50.00000   0.00000
                                             50.00000
  
+---------------- MEMORY AND SCRATCH DISK ESTIMATES PER PROCESS --------------+
|                                                     Memory          Disk    |
| Baseline code, static data and system overhead      479.0 MB         0.0 MB |
| BLAS internal memory storage                          0.0 MB         0.0 MB |
| Model and support data                               32.2 MB         0.0 MB |
| Electronic energy minimisation requirements          22.7 MB         0.0 MB |
| Force calculation requirements                        7.3 MB         0.0 MB |
| Stress calculation requirements                       9.3 MB         0.0 MB |
|                                               ----------------------------- |
| Approx. total storage required per process          533.9 MB         0.0 MB |
|                                                                             |
| Requirements will fluctuate during execution and may exceed these estimates |
+-----------------------------------------------------------------------------+
Calculating finite basis set correction with  3 cut-off energies.
Calculating total energy with cut-off of 1590.000 eV.
------------------------------------------------------------------------ <-- SCF
SCF loop      Energy                           Energy gain       Timer   <-- SCF
                                               per atom          (sec)   <-- SCF
------------------------------------------------------------------------ <-- SCF
Initial   2.06285269E+002                                          4.92  <-- SCF
      1  -9.90231786E+001                    3.81635560E+001       6.98  <-- SCF
      2  -1.23738269E+002                    3.08938635E+000       8.45  <-- SCF
      3  -1.23850243E+002                    1.39966434E-002       9.62  <-- SCF
      4  -1.23072141E+002                   -9.72626927E-002      11.72  <-- SCF
      5  -1.23046516E+002                   -3.20312517E-003      13.81  <-- SCF
      6  -1.23047617E+002                    1.37572071E-004      15.98  <-- SCF
      7  -1.23047739E+002                    1.53115730E-005      18.07  <-- SCF
      8  -1.23047739E+002                    4.98122118E-008      20.18  <-- SCF
      9  -1.23047739E+002                    3.77582483E-009      22.26  <-- SCF
     10  -1.23047739E+002                    5.52704890E-011      23.79  <-- SCF
     11  -1.23047739E+002                    1.09362760E-012      25.31  <-- SCF
     12  -1.23047739E+002                   -3.65549558E-013      26.84  <-- SCF
------------------------------------------------------------------------ <-- SCF
 
Final energy =  -123.0477394599     eV
(energy not corrected for finite basis set)
 
Calculating total energy with cut-off of 1595.000 eV.
------------------------------------------------------------------------ <-- SCF
SCF loop      Energy                           Energy gain       Timer   <-- SCF
                                               per atom          (sec)   <-- SCF
------------------------------------------------------------------------ <-- SCF
Initial  -1.23047739E+002                                         27.83  <-- SCF
      1  -1.23047757E+002                    2.13414460E-006      29.47  <-- SCF
      2  -1.23047757E+002                    2.41081444E-012      31.02  <-- SCF
      3  -1.23047757E+002                    7.26346972E-010      32.55  <-- SCF
      4  -1.23047757E+002                    5.26210100E-011      34.08  <-- SCF
      5  -1.23047757E+002                    9.81847987E-013      35.65  <-- SCF
      6  -1.23047757E+002                    4.38055256E-013      37.18  <-- SCF
------------------------------------------------------------------------ <-- SCF
 
Final energy =  -123.0477565394     eV
(energy not corrected for finite basis set)
 
Calculating total energy with cut-off of 1600.000 eV.
------------------------------------------------------------------------ <-- SCF
SCF loop      Energy                           Energy gain       Timer   <-- SCF
                                               per atom          (sec)   <-- SCF
------------------------------------------------------------------------ <-- SCF
Initial  -1.23047757E+002                                         38.18  <-- SCF
      1  -1.23047773E+002                    1.99762800E-006      39.80  <-- SCF
      2  -1.23047773E+002                    3.38662029E-012      41.35  <-- SCF
      3  -1.23047773E+002                    6.73508445E-010      42.88  <-- SCF
      4  -1.23047773E+002                    4.94035696E-011      44.46  <-- SCF
      5  -1.23047773E+002                    8.61005158E-013      45.99  <-- SCF
      6  -1.23047773E+002                   -5.92129863E-013      47.52  <-- SCF
------------------------------------------------------------------------ <-- SCF
 
Final energy =  -123.0477725262     eV
(energy not corrected for finite basis set)
 
 For future reference: finite basis dEtot/dlog(Ecut) =      -0.005270eV
 Total energy corrected for finite basis set =    -123.047772 eV
 
+---------------- MEMORY AND SCRATCH DISK ESTIMATES PER PROCESS --------------+
|                                                     Memory          Disk    |
| Model and support data                               40.3 MB         0.0 MB |
| Electronic energy minimisation requirements          22.7 MB         0.0 MB |
| Geometry minimisation requirements                   29.5 MB         0.0 MB |
|                                               ----------------------------- |
| Approx. total storage required per process           92.4 MB         0.0 MB |
|                                                                             |
| Requirements will fluctuate during execution and may exceed these estimates |
+-----------------------------------------------------------------------------+
 

 ******************************** Symmetrised Forces ********************************
 *                                                                                  *
 *                           Cartesian components (eV/A)                            *
 * -------------------------------------------------------------------------------- *
 *                         x                    y                    z              *
 *                                                                                  *
 * H               1      0.00000             -0.00000             -0.00000         *
 * H               2      0.00000              0.00000             -0.00000         *
 * H               3      0.00000             -0.00000              0.00000         *
 * H               4      0.00000              0.00000              0.00000         *
 * H               5      0.00000             -0.00000             -0.00000         *
 * H               6      0.00000              0.00000             -0.00000         *
 * H               7      0.00000             -0.00000              0.00000         *
 * H               8      0.00000              0.00000              0.00000         *
 *                                                                                  *
 ************************************************************************************

 *********** Symmetrised Stress Tensor ***********
 *                                               *
 *          Cartesian components (GPa)           *
 * --------------------------------------------- *
 *             x             y             z     *
 *                                               *
 *  x    -60.001271      0.000000      0.000000  *
 *  y      0.000000    -60.001278      0.000000  *
 *  z      0.000000      0.000000    -60.001274  *
 *                                               *
 *  Pressure:   60.0013                          *
 *                                               *
 *************************************************
 LBFGS: finished iteration     0 with enthalpy= -1.15969376E+002 eV
  
 +-----------+-----------------+-----------------+------------+-----+ <-- LBFGS
 | Parameter |      value      |    tolerance    |    units   | OK? | <-- LBFGS
 +-----------+-----------------+-----------------+------------+-----+ <-- LBFGS
 |  dE/ion   |   0.000000E+000 |   1.000000E-009 |         eV | No  | <-- LBFGS
 |  |F|max   |   5.899433E-008 |   1.000000E-005 |       eV/A | Yes | <-- LBFGS
 |  |dR|max  |   0.000000E+000 |   1.000000E-005 |          A | No  | <-- LBFGS
 |   Smax    |   1.000128E+001 |   1.000000E-005 |        GPa | No  | <-- LBFGS
 +-----------+-----------------+-----------------+------------+-----+ <-- LBFGS
  

================================================================================
 Starting LBFGS iteration          1 ...
================================================================================
  
 +------------+-------------+-------------+-----------------+ <-- min LBFGS
 |    Step    |   lambda    |   F.delta'  |    enthalpy     | <-- min LBFGS
 +------------+-------------+-------------+-----------------+ <-- min LBFGS
 |  previous  |    0.000000 |    0.090122 |     -115.969376 | <-- min LBFGS
 +------------+-------------+-------------+-----------------+ <-- min LBFGS
  

--------------------------------------------------------------------------------
 LBFGS: starting iteration         1 with trial guess (lambda=  1.000000)
--------------------------------------------------------------------------------
 
+---------------- MEMORY AND SCRATCH DISK ESTIMATES PER PROCESS --------------+
|                                                     Memory          Disk    |
| Model and support data                               40.6 MB         0.0 MB |
| Electronic energy minimisation requirements          23.1 MB         0.0 MB |
| Geometry minimisation requirements                   29.9 MB         0.0 MB |
|                                               ----------------------------- |
| Approx. total storage required per process           93.6 MB         0.0 MB |
|                                                                             |
| Requirements will fluctuate during execution and may exceed these estimates |
+-----------------------------------------------------------------------------+
 

                           -------------------------------
                                      Unit Cell
                           -------------------------------
        Real Lattice(A)              Reciprocal Lattice(1/A)
     2.8633871     0.0000000     0.0000000        2.194319218  -0.000000000   0.000000000
     0.0000000     2.8332505     0.0000000       -0.000000000   2.217659623   0.000000000
     0.0000000     0.0000000     2.8521240        0.000000000   0.000000000   2.202984643

                       Lattice parameters(A)       Cell Angles
                    a =      2.863387          alpha =   90.000000
                    b =      2.833251          beta  =   90.000000
                    c =      2.852124          gamma =   90.000000

                Current cell volume =            23.138406 A**3

                           -------------------------------
                                     Cell Contents
                           -------------------------------

            xxxxxxxxxxxxxxxxxxxxxxxxxxxxxxxxxxxxxxxxxxxxxxxxxxxxxxxxxxxxxxxxx
            x  Element         Atom        Fractional coordinates of atoms  x
            x                 Number           u          v          w      x
            x---------------------------------------------------------------x
            x  H                 1        -0.000000   0.405693   0.410686   x
            x  H                 2         0.000000   0.094307   0.910686   x
            x  H                 3        -0.000000   0.905693   0.089314   x
            x  H                 4         0.000000   0.594307   0.589314   x
            x  H                 5         0.500000   0.905693   0.410686   x
            x  H                 6         0.500000   0.594307   0.910686   x
            x  H                 7         0.500000   0.405693   0.089314   x
            x  H                 8         0.500000   0.094307   0.589314   x
            xxxxxxxxxxxxxxxxxxxxxxxxxxxxxxxxxxxxxxxxxxxxxxxxxxxxxxxxxxxxxxxxx


------------------------------------------------------------------------ <-- SCF
SCF loop      Energy                           Energy gain       Timer   <-- SCF
                                               per atom          (sec)   <-- SCF
------------------------------------------------------------------------ <-- SCF
Initial  -1.23209865E+002                                         49.39  <-- SCF
      1  -1.23213079E+002                    4.01665636E-004      51.05  <-- SCF
      2  -1.23213086E+002                    9.41552629E-007      53.17  <-- SCF
      3  -1.23212907E+002                   -2.24128993E-005      55.29  <-- SCF
      4  -1.23212901E+002                   -6.56150240E-007      57.41  <-- SCF
      5  -1.23212902E+002                    2.82299393E-008      59.53  <-- SCF
      6  -1.23212902E+002                    2.97441029E-009      61.65  <-- SCF
      7  -1.23212902E+002                    1.08879389E-011      63.20  <-- SCF
      8  -1.23212902E+002                    1.31416577E-012      64.75  <-- SCF
      9  -1.23212902E+002                   -6.04214146E-015      66.30  <-- SCF
------------------------------------------------------------------------ <-- SCF
 
Final energy =  -123.2129017387     eV
(energy not corrected for finite basis set)
 

 ******************************** Symmetrised Forces ********************************
 *                                                                                  *
 *                           Cartesian components (eV/A)                            *
 * -------------------------------------------------------------------------------- *
 *                         x                    y                    z              *
 *                                                                                  *
 * H               1     -0.00000              0.10741              0.10235         *
 * H               2     -0.00000             -0.10741              0.10235         *
 * H               3      0.00000              0.10741             -0.10235         *
 * H               4     -0.00000             -0.10741             -0.10235         *
 * H               5     -0.00000              0.10741              0.10235         *
 * H               6     -0.00000             -0.10741              0.10235         *
 * H               7      0.00000              0.10741             -0.10235         *
 * H               8     -0.00000             -0.10741             -0.10235         *
 *                                                                                  *
 ************************************************************************************

 *********** Symmetrised Stress Tensor ***********
 *                                               *
 *          Cartesian components (GPa)           *
 * --------------------------------------------- *
 *             x             y             z     *
 *                                               *
 *  x    -56.947785     -0.000000      0.000000  *
 *  y     -0.000000    -55.308455      0.000000  *
 *  z      0.000000      0.000000    -55.451440  *
 *                                               *
 *  Pressure:   55.9026                          *
 *                                               *
 *************************************************
  
 +------------+-------------+-------------+-----------------+ <-- min LBFGS
 |    Step    |   lambda    |   F.delta'  |    enthalpy     | <-- min LBFGS
 +------------+-------------+-------------+-----------------+ <-- min LBFGS
 |  previous  |    0.000000 |    0.090122 |     -115.969376 | <-- min LBFGS
 | trial step |    1.000000 |    0.053900 |     -115.991973 | <-- min LBFGS
 +------------+-------------+-------------+-----------------+ <-- min LBFGS
  

--------------------------------------------------------------------------------
 LBFGS: improving iteration         1 with line minimization (lambda=  2.488038)
--------------------------------------------------------------------------------
 
+---------------- MEMORY AND SCRATCH DISK ESTIMATES PER PROCESS --------------+
|                                                     Memory          Disk    |
| Model and support data                               41.0 MB         0.0 MB |
| Electronic energy minimisation requirements          23.5 MB         0.0 MB |
| Geometry minimisation requirements                   30.5 MB         0.0 MB |
|                                               ----------------------------- |
| Approx. total storage required per process           95.0 MB         0.0 MB |
|                                                                             |
| Requirements will fluctuate during execution and may exceed these estimates |
+-----------------------------------------------------------------------------+
 

                           -------------------------------
                                      Unit Cell
                           -------------------------------
        Real Lattice(A)              Reciprocal Lattice(1/A)
     2.8916080     0.0000000     0.0000000        2.172903521  -0.000000000   0.000000000
     0.0000000     2.8611745     0.0000000       -0.000000000   2.196016117   0.000000000
     0.0000000     0.0000000     2.8802339        0.000000000   0.000000000   2.181484368

                       Lattice parameters(A)       Cell Angles
                    a =      2.891608          alpha =   90.000000
                    b =      2.861174          beta  =   90.000000
                    c =      2.880234          gamma =   90.000000

                Current cell volume =            23.829314 A**3

                           -------------------------------
                                     Cell Contents
                           -------------------------------

            xxxxxxxxxxxxxxxxxxxxxxxxxxxxxxxxxxxxxxxxxxxxxxxxxxxxxxxxxxxxxxxxx
            x  Element         Atom        Fractional coordinates of atoms  x
            x                 Number           u          v          w      x
            x---------------------------------------------------------------x
            x  H                 1        -0.000000   0.405693   0.410686   x
            x  H                 2         0.000000   0.094307   0.910686   x
            x  H                 3        -0.000000   0.905693   0.089314   x
            x  H                 4         0.000000   0.594307   0.589314   x
            x  H                 5         0.500000   0.905693   0.410686   x
            x  H                 6         0.500000   0.594307   0.910686   x
            x  H                 7         0.500000   0.405693   0.089314   x
            x  H                 8         0.500000   0.094307   0.589314   x
            xxxxxxxxxxxxxxxxxxxxxxxxxxxxxxxxxxxxxxxxxxxxxxxxxxxxxxxxxxxxxxxxx


------------------------------------------------------------------------ <-- SCF
SCF loop      Energy                           Energy gain       Timer   <-- SCF
                                               per atom          (sec)   <-- SCF
------------------------------------------------------------------------ <-- SCF
Initial  -1.23434916E+002                                         68.13  <-- SCF
      1  -1.23441859E+002                    8.67854758E-004      69.78  <-- SCF
      2  -1.23441876E+002                    2.08781457E-006      71.89  <-- SCF
      3  -1.23441480E+002                   -4.94011183E-005      74.01  <-- SCF
      4  -1.23441469E+002                   -1.44341350E-006      76.21  <-- SCF
      5  -1.23441469E+002                    6.57519157E-008      78.31  <-- SCF
      6  -1.23441470E+002                    7.02601356E-009      80.47  <-- SCF
      7  -1.23441470E+002                    2.77606189E-011      82.01  <-- SCF
      8  -1.23441470E+002                    2.61322618E-012      83.56  <-- SCF
      9  -1.23441470E+002                    3.26275639E-013      85.10  <-- SCF
------------------------------------------------------------------------ <-- SCF
 
Final energy =  -123.4414695263     eV
(energy not corrected for finite basis set)
 

 ******************************** Symmetrised Forces ********************************
 *                                                                                  *
 *                           Cartesian components (eV/A)                            *
 * -------------------------------------------------------------------------------- *
 *                         x                    y                    z              *
 *                                                                                  *
 * H               1      0.00000              0.26166              0.24932         *
 * H               2      0.00000             -0.26166              0.24932         *
 * H               3     -0.00000              0.26166             -0.24932         *
 * H               4     -0.00000             -0.26166             -0.24932         *
 * H               5      0.00000              0.26166              0.24932         *
 * H               6      0.00000             -0.26166              0.24932         *
 * H               7     -0.00000              0.26166             -0.24932         *
 * H               8     -0.00000             -0.26166             -0.24932         *
 *                                                                                  *
 ************************************************************************************

 *********** Symmetrised Stress Tensor ***********
 *                                               *
 *          Cartesian components (GPa)           *
 * --------------------------------------------- *
 *             x             y             z     *
 *                                               *
 *  x    -52.699821      0.000000      0.000000  *
 *  y      0.000000    -48.785300      0.000000  *
 *  z      0.000000      0.000000    -49.126814  *
 *                                               *
 *  Pressure:   50.2040                          *
 *                                               *
 *************************************************
  
 +------------+-------------+-------------+-----------------+ <-- min LBFGS
 |    Step    |   lambda    |   F.delta'  |    enthalpy     | <-- min LBFGS
 +------------+-------------+-------------+-----------------+ <-- min LBFGS
 |  previous  |    0.000000 |    0.090122 |     -115.969376 | <-- min LBFGS
 | trial step |    1.000000 |    0.053900 |     -115.991973 | <-- min LBFGS
 |  line step |    2.488038 |    0.001899 |     -116.004926 | <-- min LBFGS
 +------------+-------------+-------------+-----------------+ <-- min LBFGS
  
 LBFGS: finished iteration     1 with enthalpy= -1.16004926E+002 eV
  
 +-----------+-----------------+-----------------+------------+-----+ <-- LBFGS
 | Parameter |      value      |    tolerance    |    units   | OK? | <-- LBFGS
 +-----------+-----------------+-----------------+------------+-----+ <-- LBFGS
 |  dE/ion   |   4.443708E-003 |   1.000000E-009 |         eV | No  | <-- LBFGS
 |  |F|max   |   3.614261E-001 |   1.000000E-005 |       eV/A | No  | <-- LBFGS
 |  |dR|max  |   1.447237E-008 |   1.000000E-005 |          A | Yes | <-- LBFGS
 |   Smax    |   2.699821E+000 |   1.000000E-005 |        GPa | No  | <-- LBFGS
 +-----------+-----------------+-----------------+------------+-----+ <-- LBFGS
  

================================================================================
 Starting LBFGS iteration          2 ...
================================================================================
  
 +------------+-------------+-------------+-----------------+ <-- min LBFGS
 |    Step    |   lambda    |   F.delta'  |    enthalpy     | <-- min LBFGS
 +------------+-------------+-------------+-----------------+ <-- min LBFGS
 |  previous  |    0.000000 |    0.069396 |     -116.004926 | <-- min LBFGS
 +------------+-------------+-------------+-----------------+ <-- min LBFGS
  

--------------------------------------------------------------------------------
 LBFGS: starting iteration         2 with trial guess (lambda=  1.000000)
--------------------------------------------------------------------------------
 
+---------------- MEMORY AND SCRATCH DISK ESTIMATES PER PROCESS --------------+
|                                                     Memory          Disk    |
| Model and support data                               42.4 MB         0.0 MB |
| Electronic energy minimisation requirements          25.0 MB         0.0 MB |
| Geometry minimisation requirements                   32.5 MB         0.0 MB |
|                                               ----------------------------- |
| Approx. total storage required per process           99.9 MB         0.0 MB |
|                                                                             |
| Requirements will fluctuate during execution and may exceed these estimates |
+-----------------------------------------------------------------------------+
 

                           -------------------------------
                                      Unit Cell
                           -------------------------------
        Real Lattice(A)              Reciprocal Lattice(1/A)
     2.9714812     0.0000000     0.0000000        2.114496070  -0.000000000   0.000000000
     0.0000000     2.9324530     0.0000000       -0.000000000   2.142638028   0.000000000
     0.0000000     0.0000000     2.9526682        0.000000000   0.000000000   2.127968619

                       Lattice parameters(A)       Cell Angles
                    a =      2.971481          alpha =   90.000000
                    b =      2.932453          beta  =   90.000000
                    c =      2.952668          gamma =   90.000000

                Current cell volume =            25.728750 A**3

                           -------------------------------
                                     Cell Contents
                           -------------------------------

            xxxxxxxxxxxxxxxxxxxxxxxxxxxxxxxxxxxxxxxxxxxxxxxxxxxxxxxxxxxxxxxxx
            x  Element         Atom        Fractional coordinates of atoms  x
            x                 Number           u          v          w      x
            x---------------------------------------------------------------x
            x  H                 1        -0.000000   0.415057   0.419550   x
            x  H                 2        -0.000000   0.084943   0.919550   x
            x  H                 3         0.000000   0.915057   0.080450   x
            x  H                 4        -0.000000   0.584943   0.580450   x
            x  H                 5         0.500000   0.915057   0.419550   x
            x  H                 6         0.500000   0.584943   0.919550   x
            x  H                 7         0.500000   0.415057   0.080450   x
            x  H                 8         0.500000   0.084943   0.580450   x
            xxxxxxxxxxxxxxxxxxxxxxxxxxxxxxxxxxxxxxxxxxxxxxxxxxxxxxxxxxxxxxxxx


------------------------------------------------------------------------ <-- SCF
SCF loop      Energy                           Energy gain       Timer   <-- SCF
                                               per atom          (sec)   <-- SCF
------------------------------------------------------------------------ <-- SCF
Initial  -1.22696479E+002                                         86.96  <-- SCF
      1  -1.23933535E+002                    1.54632049E-001      88.64  <-- SCF
      2  -1.23936686E+002                    3.93881939E-004      90.85  <-- SCF
      3  -1.23833472E+002                   -1.29017577E-002      93.08  <-- SCF
      4  -1.23829821E+002                   -4.56351670E-004      95.30  <-- SCF
      5  -1.23829891E+002                    8.69529520E-006      97.45  <-- SCF
      6  -1.23829899E+002                    9.64401527E-007      99.60  <-- SCF
      7  -1.23829899E+002                    6.30997146E-009     101.76  <-- SCF
      8  -1.23829899E+002                    4.69262916E-010     103.85  <-- SCF
      9  -1.23829899E+002                    1.16492487E-011     105.43  <-- SCF
     10  -1.23829899E+002                   -1.38969254E-013     107.00  <-- SCF
     11  -1.23829899E+002                    4.50139539E-013     108.57  <-- SCF
------------------------------------------------------------------------ <-- SCF
 
Final energy =  -123.8298987902     eV
(energy not corrected for finite basis set)
 

 ******************************** Symmetrised Forces ********************************
 *                                                                                  *
 *                           Cartesian components (eV/A)                            *
 * -------------------------------------------------------------------------------- *
 *                         x                    y                    z              *
 *                                                                                  *
 * H               1      0.00000             -1.42296             -1.35794         *
 * H               2     -0.00000              1.42296             -1.35794         *
 * H               3      0.00000             -1.42296              1.35794         *
 * H               4     -0.00000              1.42296              1.35794         *
 * H               5      0.00000             -1.42296             -1.35794         *
 * H               6     -0.00000              1.42296             -1.35794         *
 * H               7      0.00000             -1.42296              1.35794         *
 * H               8     -0.00000              1.42296              1.35794         *
 *                                                                                  *
 ************************************************************************************

 *********** Symmetrised Stress Tensor ***********
 *                                               *
 *          Cartesian components (GPa)           *
 * --------------------------------------------- *
 *             x             y             z     *
 *                                               *
 *  x    -40.952975      0.000000      0.000000  *
 *  y      0.000000    -59.000429      0.000000  *
 *  z      0.000000      0.000000    -57.449139  *
 *                                               *
 *  Pressure:   52.4675                          *
 *                                               *
 *************************************************
  
 +------------+-------------+-------------+-----------------+ <-- min LBFGS
 |    Step    |   lambda    |   F.delta'  |    enthalpy     | <-- min LBFGS
 +------------+-------------+-------------+-----------------+ <-- min LBFGS
 |  previous  |    0.000000 |    0.069396 |     -116.004926 | <-- min LBFGS
 | trial step |    1.000000 |   -0.359457 |     -115.800587 | <-- min LBFGS
 +------------+-------------+-------------+-----------------+ <-- min LBFGS
  

--------------------------------------------------------------------------------
 LBFGS: improving iteration         2 with line minimization (lambda=  0.161818)
--------------------------------------------------------------------------------

                           -------------------------------
                                      Unit Cell
                           -------------------------------
        Real Lattice(A)              Reciprocal Lattice(1/A)
     2.9045330     0.0000000     0.0000000        2.163234269  -0.000000000   0.000000000
     0.0000000     2.8727087     0.0000000       -0.000000000   2.187198922   0.000000000
     0.0000000     0.0000000     2.8919551        0.000000000   0.000000000   2.172642731

                       Lattice parameters(A)       Cell Angles
                    a =      2.904533          alpha =   90.000000
                    b =      2.872709          beta  =   90.000000
                    c =      2.891955          gamma =   90.000000

                Current cell volume =            24.130118 A**3

                           -------------------------------
                                     Cell Contents
                           -------------------------------

            xxxxxxxxxxxxxxxxxxxxxxxxxxxxxxxxxxxxxxxxxxxxxxxxxxxxxxxxxxxxxxxxx
            x  Element         Atom        Fractional coordinates of atoms  x
            x                 Number           u          v          w      x
            x---------------------------------------------------------------x
            x  H                 1        -0.000000   0.407209   0.412120   x
            x  H                 2        -0.000000   0.092791   0.912120   x
            x  H                 3         0.000000   0.907209   0.087880   x
            x  H                 4        -0.000000   0.592791   0.587880   x
            x  H                 5         0.500000   0.907209   0.412120   x
            x  H                 6         0.500000   0.592791   0.912120   x
            x  H                 7         0.500000   0.407209   0.087880   x
            x  H                 8         0.500000   0.092791   0.587880   x
            xxxxxxxxxxxxxxxxxxxxxxxxxxxxxxxxxxxxxxxxxxxxxxxxxxxxxxxxxxxxxxxxx


------------------------------------------------------------------------ <-- SCF
SCF loop      Energy                           Energy gain       Timer   <-- SCF
                                               per atom          (sec)   <-- SCF
------------------------------------------------------------------------ <-- SCF
Initial  -1.22676867E+002                                        110.40  <-- SCF
      1  -1.23623814E+002                    1.18368301E-001     112.07  <-- SCF
      2  -1.23626055E+002                    2.80135368E-004     114.18  <-- SCF
      3  -1.23548555E+002                   -9.68743961E-003     116.29  <-- SCF
      4  -1.23545953E+002                   -3.25253661E-004     118.41  <-- SCF
      5  -1.23545985E+002                    3.93722657E-006     120.52  <-- SCF
      6  -1.23545988E+002                    3.73004159E-007     122.67  <-- SCF
      7  -1.23545988E+002                    1.61026695E-009     124.79  <-- SCF
      8  -1.23545988E+002                    2.03173049E-010     126.55  <-- SCF
      9  -1.23545988E+002                    6.79740914E-012     128.11  <-- SCF
     10  -1.23545988E+002                   -3.65549558E-013     129.68  <-- SCF
------------------------------------------------------------------------ <-- SCF
 
Final energy =  -123.5459879280     eV
(energy not corrected for finite basis set)
 

 ******************************** Symmetrised Forces ********************************
 *                                                                                  *
 *                           Cartesian components (eV/A)                            *
 * -------------------------------------------------------------------------------- *
 *                         x                    y                    z              *
 *                                                                                  *
 * H               1      0.00000              0.04132              0.03911         *
 * H               2     -0.00000             -0.04132              0.03911         *
 * H               3      0.00000              0.04132             -0.03911         *
 * H               4     -0.00000             -0.04132             -0.03911         *
 * H               5      0.00000              0.04132              0.03911         *
 * H               6     -0.00000             -0.04132              0.03911         *
 * H               7      0.00000              0.04132             -0.03911         *
 * H               8     -0.00000             -0.04132             -0.03911         *
 *                                                                                  *
 ************************************************************************************

 *********** Symmetrised Stress Tensor ***********
 *                                               *
 *          Cartesian components (GPa)           *
 * --------------------------------------------- *
 *             x             y             z     *
 *                                               *
 *  x    -50.641656      0.000000      0.000000  *
 *  y      0.000000    -50.048552      0.000000  *
 *  z      0.000000      0.000000    -50.112467  *
 *                                               *
 *  Pressure:   50.2676                          *
 *                                               *
 *************************************************
  
 +------------+-------------+-------------+-----------------+ <-- min LBFGS
 |    Step    |   lambda    |   F.delta'  |    enthalpy     | <-- min LBFGS
 +------------+-------------+-------------+-----------------+ <-- min LBFGS
 |  previous  |    0.000000 |    0.069396 |     -116.004926 | <-- min LBFGS
 | trial step |    1.000000 |   -0.359457 |     -115.800587 | <-- min LBFGS
 |  line step |    0.161818 |    0.012689 |     -116.015570 | <-- min LBFGS
 +------------+-------------+-------------+-----------------+ <-- min LBFGS
  
 LBFGS: finished iteration     2 with enthalpy= -1.16015570E+002 eV
  
 +-----------+-----------------+-----------------+------------+-----+ <-- LBFGS
 | Parameter |      value      |    tolerance    |    units   | OK? | <-- LBFGS
 +-----------+-----------------+-----------------+------------+-----+ <-- LBFGS
 |  dE/ion   |   1.330575E-003 |   1.000000E-009 |         eV | No  | <-- LBFGS
 |  |F|max   |   5.688995E-002 |   1.000000E-005 |       eV/A | No  | <-- LBFGS
 |  |dR|max  |   6.012726E-003 |   1.000000E-005 |          A | No  | <-- LBFGS
 |   Smax    |   6.416563E-001 |   1.000000E-005 |        GPa | No  | <-- LBFGS
 +-----------+-----------------+-----------------+------------+-----+ <-- LBFGS
  

================================================================================
 Starting LBFGS iteration          3 ...
================================================================================
  
 +------------+-------------+-------------+-----------------+ <-- min LBFGS
 |    Step    |   lambda    |   F.delta'  |    enthalpy     | <-- min LBFGS
 +------------+-------------+-------------+-----------------+ <-- min LBFGS
 |  previous  |    0.000000 |    0.010220 |     -116.015570 | <-- min LBFGS
 +------------+-------------+-------------+-----------------+ <-- min LBFGS
  

--------------------------------------------------------------------------------
 LBFGS: starting iteration         3 with trial guess (lambda=  1.000000)
--------------------------------------------------------------------------------

                           -------------------------------
                                      Unit Cell
                           -------------------------------
        Real Lattice(A)              Reciprocal Lattice(1/A)
     2.9088142     0.0000000     0.0000000        2.160050418  -0.000000000   0.000000000
     0.0000000     2.8767115     0.0000000       -0.000000000   2.184155536   0.000000000
     0.0000000     0.0000000     2.8960345        0.000000000   0.000000000   2.169582359

                       Lattice parameters(A)       Cell Angles
                    a =      2.908814          alpha =   90.000000
                    b =      2.876711          beta  =   90.000000
                    c =      2.896034          gamma =   90.000000

                Current cell volume =            24.233493 A**3

                           -------------------------------
                                     Cell Contents
                           -------------------------------

            xxxxxxxxxxxxxxxxxxxxxxxxxxxxxxxxxxxxxxxxxxxxxxxxxxxxxxxxxxxxxxxxx
            x  Element         Atom        Fractional coordinates of atoms  x
            x                 Number           u          v          w      x
            x---------------------------------------------------------------x
            x  H                 1         0.000000   0.407555   0.412438   x
            x  H                 2         0.000000   0.092445   0.912438   x
            x  H                 3         0.000000   0.907555   0.087562   x
            x  H                 4         0.000000   0.592445   0.587562   x
            x  H                 5         0.500000   0.907555   0.412438   x
            x  H                 6         0.500000   0.592445   0.912438   x
            x  H                 7         0.500000   0.407555   0.087562   x
            x  H                 8         0.500000   0.092445   0.587562   x
            xxxxxxxxxxxxxxxxxxxxxxxxxxxxxxxxxxxxxxxxxxxxxxxxxxxxxxxxxxxxxxxxx


------------------------------------------------------------------------ <-- SCF
SCF loop      Energy                           Energy gain       Timer   <-- SCF
                                               per atom          (sec)   <-- SCF
------------------------------------------------------------------------ <-- SCF
Initial  -1.23576913E+002                                        131.52  <-- SCF
      1  -1.23578789E+002                    2.34471865E-004     133.17  <-- SCF
      2  -1.23578794E+002                    6.41522146E-007     135.35  <-- SCF
      3  -1.23578639E+002                   -1.94577286E-005     137.48  <-- SCF
      4  -1.23578633E+002                   -7.30472821E-007     139.61  <-- SCF
      5  -1.23578633E+002                    1.02612117E-008     141.74  <-- SCF
      6  -1.23578633E+002                    1.03871662E-009     143.88  <-- SCF
      7  -1.23578633E+002                    4.71891248E-012     145.43  <-- SCF
      8  -1.23578633E+002                    2.23559234E-013     146.98  <-- SCF
------------------------------------------------------------------------ <-- SCF
 
Final energy =  -123.5786328030     eV
(energy not corrected for finite basis set)
 

 ******************************** Symmetrised Forces ********************************
 *                                                                                  *
 *                           Cartesian components (eV/A)                            *
 * -------------------------------------------------------------------------------- *
 *                         x                    y                    z              *
 *                                                                                  *
 * H               1      0.00000             -0.00262             -0.00280         *
 * H               2      0.00000              0.00262             -0.00280         *
 * H               3      0.00000             -0.00262              0.00280         *
 * H               4      0.00000              0.00262              0.00280         *
 * H               5      0.00000             -0.00262             -0.00280         *
 * H               6      0.00000              0.00262             -0.00280         *
 * H               7      0.00000             -0.00262              0.00280         *
 * H               8      0.00000              0.00262              0.00280         *
 *                                                                                  *
 ************************************************************************************

 *********** Symmetrised Stress Tensor ***********
 *                                               *
 *          Cartesian components (GPa)           *
 * --------------------------------------------- *
 *             x             y             z     *
 *                                               *
 *  x    -49.994768      0.000000      0.000000  *
 *  y      0.000000    -50.041512      0.000000  *
 *  z      0.000000      0.000000    -50.050839  *
 *                                               *
 *  Pressure:   50.0290                          *
 *                                               *
 *************************************************
  
 +------------+-------------+-------------+-----------------+ <-- min LBFGS
 |    Step    |   lambda    |   F.delta'  |    enthalpy     | <-- min LBFGS
 +------------+-------------+-------------+-----------------+ <-- min LBFGS
 |  previous  |    0.000000 |    0.010220 |     -116.015570 | <-- min LBFGS
 | trial step |    1.000000 |   -0.000297 |     -116.015954 | <-- min LBFGS
 +------------+-------------+-------------+-----------------+ <-- min LBFGS
  
 LBFGS: finished iteration     3 with enthalpy= -1.16015954E+002 eV
  
 +-----------+-----------------+-----------------+------------+-----+ <-- LBFGS
 | Parameter |      value      |    tolerance    |    units   | OK? | <-- LBFGS
 +-----------+-----------------+-----------------+------------+-----+ <-- LBFGS
 |  dE/ion   |   4.803579E-005 |   1.000000E-009 |         eV | No  | <-- LBFGS
 |  |F|max   |   3.832917E-003 |   1.000000E-005 |       eV/A | No  | <-- LBFGS
 |  |dR|max  |   1.356233E-003 |   1.000000E-005 |          A | No  | <-- LBFGS
 |   Smax    |   5.083880E-002 |   1.000000E-005 |        GPa | No  | <-- LBFGS
 +-----------+-----------------+-----------------+------------+-----+ <-- LBFGS
  

================================================================================
 Starting LBFGS iteration          4 ...
================================================================================
  
 +------------+-------------+-------------+-----------------+ <-- min LBFGS
 |    Step    |   lambda    |   F.delta'  |    enthalpy     | <-- min LBFGS
 +------------+-------------+-------------+-----------------+ <-- min LBFGS
 |  previous  |    0.000000 |    0.001115 |     -116.015954 | <-- min LBFGS
 +------------+-------------+-------------+-----------------+ <-- min LBFGS
  

--------------------------------------------------------------------------------
 LBFGS: starting iteration         4 with trial guess (lambda=  1.000000)
--------------------------------------------------------------------------------

                           -------------------------------
                                      Unit Cell
                           -------------------------------
        Real Lattice(A)              Reciprocal Lattice(1/A)
     2.9088328     0.0000000     0.0000000        2.160036634  -0.000000000   0.000000000
     0.0000000     2.8767504     0.0000000       -0.000000000   2.184125989   0.000000000
     0.0000000     0.0000000     2.8960974        0.000000000   0.000000000   2.169535226

                       Lattice parameters(A)       Cell Angles
                    a =      2.908833          alpha =   90.000000
                    b =      2.876750          beta  =   90.000000
                    c =      2.896097          gamma =   90.000000

                Current cell volume =            24.234502 A**3

                           -------------------------------
                                     Cell Contents
                           -------------------------------

            xxxxxxxxxxxxxxxxxxxxxxxxxxxxxxxxxxxxxxxxxxxxxxxxxxxxxxxxxxxxxxxxx
            x  Element         Atom        Fractional coordinates of atoms  x
            x                 Number           u          v          w      x
            x---------------------------------------------------------------x
            x  H                 1         0.000000   0.407548   0.412420   x
            x  H                 2         0.000000   0.092452   0.912420   x
            x  H                 3         0.000000   0.907548   0.087580   x
            x  H                 4         0.000000   0.592452   0.587580   x
            x  H                 5         0.500000   0.907548   0.412420   x
            x  H                 6         0.500000   0.592452   0.912420   x
            x  H                 7         0.500000   0.407548   0.087580   x
            x  H                 8         0.500000   0.092452   0.587580   x
            xxxxxxxxxxxxxxxxxxxxxxxxxxxxxxxxxxxxxxxxxxxxxxxxxxxxxxxxxxxxxxxxx


------------------------------------------------------------------------ <-- SCF
SCF loop      Energy                           Energy gain       Timer   <-- SCF
                                               per atom          (sec)   <-- SCF
------------------------------------------------------------------------ <-- SCF
Initial  -1.23578947E+002                                        148.84  <-- SCF
      1  -1.23578949E+002                    2.33837962E-007     150.49  <-- SCF
      2  -1.23578949E+002                    4.52659112E-010     152.68  <-- SCF
      3  -1.23578949E+002                   -1.03553060E-008     154.83  <-- SCF
      4  -1.23578949E+002                   -3.20239539E-010     156.98  <-- SCF
      5  -1.23578949E+002                    5.18415737E-012     158.54  <-- SCF
      6  -1.23578949E+002                    5.49834873E-013     160.10  <-- SCF
------------------------------------------------------------------------ <-- SCF
 
Final energy =  -123.5789485827     eV
(energy not corrected for finite basis set)
 

 ******************************** Symmetrised Forces ********************************
 *                                                                                  *
 *                           Cartesian components (eV/A)                            *
 * -------------------------------------------------------------------------------- *
 *                         x                    y                    z              *
 *                                                                                  *
 * H               1      0.00000              0.00012             -0.00017         *
 * H               2      0.00000             -0.00012             -0.00017         *
 * H               3      0.00000              0.00012              0.00017         *
 * H               4     -0.00000             -0.00012              0.00017         *
 * H               5      0.00000              0.00012             -0.00017         *
 * H               6      0.00000             -0.00012             -0.00017         *
 * H               7      0.00000              0.00012              0.00017         *
 * H               8     -0.00000             -0.00012              0.00017         *
 *                                                                                  *
 ************************************************************************************

 *********** Symmetrised Stress Tensor ***********
 *                                               *
 *          Cartesian components (GPa)           *
 * --------------------------------------------- *
 *             x             y             z     *
 *                                               *
 *  x    -49.992604      0.000000      0.000000  *
 *  y      0.000000    -49.999283      0.000000  *
 *  z      0.000000      0.000000    -50.011180  *
 *                                               *
 *  Pressure:   50.0010                          *
 *                                               *
 *************************************************
  
 +------------+-------------+-------------+-----------------+ <-- min LBFGS
 |    Step    |   lambda    |   F.delta'  |    enthalpy     | <-- min LBFGS
 +------------+-------------+-------------+-----------------+ <-- min LBFGS
 |  previous  |    0.000000 |    0.001115 |     -116.015954 | <-- min LBFGS
 | trial step |    1.000000 |    0.000048 |     -116.015955 | <-- min LBFGS
 +------------+-------------+-------------+-----------------+ <-- min LBFGS
  
 LBFGS: finished iteration     4 with enthalpy= -1.16015955E+002 eV
  
 +-----------+-----------------+-----------------+------------+-----+ <-- LBFGS
 | Parameter |      value      |    tolerance    |    units   | OK? | <-- LBFGS
 +-----------+-----------------+-----------------+------------+-----+ <-- LBFGS
 |  dE/ion   |   1.138098E-007 |   1.000000E-009 |         eV | No  | <-- LBFGS
 |  |F|max   |   2.080005E-004 |   1.000000E-005 |       eV/A | No  | <-- LBFGS
 |  |dR|max  |   5.376588E-005 |   1.000000E-005 |          A | No  | <-- LBFGS
 |   Smax    |   1.117971E-002 |   1.000000E-005 |        GPa | No  | <-- LBFGS
 +-----------+-----------------+-----------------+------------+-----+ <-- LBFGS
  

================================================================================
 Starting LBFGS iteration          5 ...
================================================================================
  
 +------------+-------------+-------------+-----------------+ <-- min LBFGS
 |    Step    |   lambda    |   F.delta'  |    enthalpy     | <-- min LBFGS
 +------------+-------------+-------------+-----------------+ <-- min LBFGS
 |  previous  |    0.000000 |    0.000086 |     -116.015955 | <-- min LBFGS
 +------------+-------------+-------------+-----------------+ <-- min LBFGS
  

--------------------------------------------------------------------------------
 LBFGS: starting iteration         5 with trial guess (lambda=  1.000000)
--------------------------------------------------------------------------------

                           -------------------------------
                                      Unit Cell
                           -------------------------------
        Real Lattice(A)              Reciprocal Lattice(1/A)
     2.9088223     0.0000000     0.0000000        2.160044424  -0.000000000   0.000000000
     0.0000000     2.8767533     0.0000000       -0.000000000   2.184123768   0.000000000
     0.0000000     0.0000000     2.8961257        0.000000000   0.000000000   2.169514027

                       Lattice parameters(A)       Cell Angles
                    a =      2.908822          alpha =   90.000000
                    b =      2.876753          beta  =   90.000000
                    c =      2.896126          gamma =   90.000000

                Current cell volume =            24.234676 A**3

                           -------------------------------
                                     Cell Contents
                           -------------------------------

            xxxxxxxxxxxxxxxxxxxxxxxxxxxxxxxxxxxxxxxxxxxxxxxxxxxxxxxxxxxxxxxxx
            x  Element         Atom        Fractional coordinates of atoms  x
            x                 Number           u          v          w      x
            x---------------------------------------------------------------x
            x  H                 1         0.000000   0.407553   0.412415   x
            x  H                 2         0.000000   0.092447   0.912415   x
            x  H                 3         0.000000   0.907553   0.087585   x
            x  H                 4         0.000000   0.592447   0.587585   x
            x  H                 5         0.500000   0.907553   0.412415   x
            x  H                 6         0.500000   0.592447   0.912415   x
            x  H                 7         0.500000   0.407553   0.087585   x
            x  H                 8         0.500000   0.092447   0.587585   x
            xxxxxxxxxxxxxxxxxxxxxxxxxxxxxxxxxxxxxxxxxxxxxxxxxxxxxxxxxxxxxxxxx


------------------------------------------------------------------------ <-- SCF
SCF loop      Energy                           Energy gain       Timer   <-- SCF
                                               per atom          (sec)   <-- SCF
------------------------------------------------------------------------ <-- SCF
Initial  -1.23579003E+002                                        161.95  <-- SCF
      1  -1.23579003E+002                    2.27737616E-008     163.66  <-- SCF
      2  -1.23579003E+002                    1.38062932E-011     165.36  <-- SCF
      3  -1.23579003E+002                    5.07811779E-010     166.93  <-- SCF
      4  -1.23579003E+002                    3.84763568E-011     168.48  <-- SCF
      5  -1.23579003E+002                    8.30794451E-013     170.04  <-- SCF
      6  -1.23579003E+002                    2.11474951E-014     171.59  <-- SCF
------------------------------------------------------------------------ <-- SCF
 
Final energy =  -123.5790029574     eV
(energy not corrected for finite basis set)
 

 ******************************** Symmetrised Forces ********************************
 *                                                                                  *
 *                           Cartesian components (eV/A)                            *
 * -------------------------------------------------------------------------------- *
 *                         x                    y                    z              *
 *                                                                                  *
 * H               1      0.00000              0.00022             -0.00006         *
 * H               2     -0.00000             -0.00022             -0.00006         *
 * H               3     -0.00000              0.00022              0.00006         *
 * H               4     -0.00000             -0.00022              0.00006         *
 * H               5      0.00000              0.00022             -0.00006         *
 * H               6     -0.00000             -0.00022             -0.00006         *
 * H               7     -0.00000              0.00022              0.00006         *
 * H               8     -0.00000             -0.00022              0.00006         *
 *                                                                                  *
 ************************************************************************************

 *********** Symmetrised Stress Tensor ***********
 *                                               *
 *          Cartesian components (GPa)           *
 * --------------------------------------------- *
 *             x             y             z     *
 *                                               *
 *  x    -49.992273      0.000000      0.000000  *
 *  y      0.000000    -49.996980      0.000000  *
 *  z      0.000000      0.000000    -50.008159  *
 *                                               *
 *  Pressure:   49.9991                          *
 *                                               *
 *************************************************
  
 +------------+-------------+-------------+-----------------+ <-- min LBFGS
 |    Step    |   lambda    |   F.delta'  |    enthalpy     | <-- min LBFGS
 +------------+-------------+-------------+-----------------+ <-- min LBFGS
 |  previous  |    0.000000 |    0.000086 |     -116.015955 | <-- min LBFGS
 | trial step |    1.000000 |    0.000075 |     -116.015955 | <-- min LBFGS
 +------------+-------------+-------------+-----------------+ <-- min LBFGS
  

--------------------------------------------------------------------------------
 LBFGS: improving iteration         5 with line minimization (lambda=  7.675425)
--------------------------------------------------------------------------------

                           -------------------------------
                                      Unit Cell
                           -------------------------------
        Real Lattice(A)              Reciprocal Lattice(1/A)
     2.9087522     0.0000000     0.0000000        2.160096424  -0.000000000   0.000000000
     0.0000000     2.8767729     0.0000000       -0.000000000   2.184108942   0.000000000
     0.0000000     0.0000000     2.8963146        0.000000000   0.000000000   2.169372523

                       Lattice parameters(A)       Cell Angles
                    a =      2.908752          alpha =   90.000000
                    b =      2.876773          beta  =   90.000000
                    c =      2.896315          gamma =   90.000000

                Current cell volume =            24.235838 A**3

                           -------------------------------
                                     Cell Contents
                           -------------------------------

            xxxxxxxxxxxxxxxxxxxxxxxxxxxxxxxxxxxxxxxxxxxxxxxxxxxxxxxxxxxxxxxxx
            x  Element         Atom        Fractional coordinates of atoms  x
            x                 Number           u          v          w      x
            x---------------------------------------------------------------x
            x  H                 1        -0.000000   0.407589   0.412377   x
            x  H                 2        -0.000000   0.092411   0.912377   x
            x  H                 3        -0.000000   0.907589   0.087623   x
            x  H                 4        -0.000000   0.592411   0.587623   x
            x  H                 5         0.500000   0.907589   0.412377   x
            x  H                 6         0.500000   0.592411   0.912377   x
            x  H                 7         0.500000   0.407589   0.087623   x
            x  H                 8         0.500000   0.092411   0.587623   x
            xxxxxxxxxxxxxxxxxxxxxxxxxxxxxxxxxxxxxxxxxxxxxxxxxxxxxxxxxxxxxxxxx


------------------------------------------------------------------------ <-- SCF
SCF loop      Energy                           Energy gain       Timer   <-- SCF
                                               per atom          (sec)   <-- SCF
------------------------------------------------------------------------ <-- SCF
Initial  -1.23579358E+002                                        173.43  <-- SCF
      1  -1.23579365E+002                    8.77060950E-007     175.09  <-- SCF
      2  -1.23579366E+002                    6.69792528E-010     177.22  <-- SCF
      3  -1.23579366E+002                    2.25944430E-008     179.36  <-- SCF
      4  -1.23579366E+002                    1.72694675E-009     181.48  <-- SCF
      5  -1.23579366E+002                    1.45071816E-011     183.04  <-- SCF
      6  -1.23579366E+002                    1.08154332E-012     184.60  <-- SCF
      7  -1.23579366E+002                   -2.71896366E-013     186.15  <-- SCF
------------------------------------------------------------------------ <-- SCF
 
Final energy =  -123.5793656975     eV
(energy not corrected for finite basis set)
 

 ******************************** Symmetrised Forces ********************************
 *                                                                                  *
 *                           Cartesian components (eV/A)                            *
 * -------------------------------------------------------------------------------- *
 *                         x                    y                    z              *
 *                                                                                  *
 * H               1      0.00000              0.00089              0.00071         *
 * H               2     -0.00000             -0.00089              0.00071         *
 * H               3      0.00000              0.00089             -0.00071         *
 * H               4     -0.00000             -0.00089             -0.00071         *
 * H               5      0.00000              0.00089              0.00071         *
 * H               6     -0.00000             -0.00089              0.00071         *
 * H               7      0.00000              0.00089             -0.00071         *
 * H               8     -0.00000             -0.00089             -0.00071         *
 *                                                                                  *
 ************************************************************************************

 *********** Symmetrised Stress Tensor ***********
 *                                               *
 *          Cartesian components (GPa)           *
 * --------------------------------------------- *
 *             x             y             z     *
 *                                               *
 *  x    -49.990037     -0.000000      0.000000  *
 *  y     -0.000000    -49.981563      0.000000  *
 *  z      0.000000      0.000000    -49.987982  *
 *                                               *
 *  Pressure:   49.9865                          *
 *                                               *
[...]
            x  H                 8         0.500000   0.092364   0.587663   x
            xxxxxxxxxxxxxxxxxxxxxxxxxxxxxxxxxxxxxxxxxxxxxxxxxxxxxxxxxxxxxxxxx


------------------------------------------------------------------------ <-- SCF
SCF loop      Energy                           Energy gain       Timer   <-- SCF
                                               per atom          (sec)   <-- SCF
------------------------------------------------------------------------ <-- SCF
Initial  -1.23578995E+002                                        249.06  <-- SCF
      1  -1.23578995E+002                    5.73701332E-012     250.14  <-- SCF
      2  -1.23578995E+002                    2.23559234E-013     251.69  <-- SCF
      3  -1.23578995E+002                    6.25361641E-013     253.24  <-- SCF
      4  -1.23578995E+002                   -7.49225541E-013     254.86  <-- SCF
------------------------------------------------------------------------ <-- SCF
 
Final energy =  -123.5789952775     eV
(energy not corrected for finite basis set)
 

 ******************************** Symmetrised Forces ********************************
 *                                                                                  *
 *                           Cartesian components (eV/A)                            *
 * -------------------------------------------------------------------------------- *
 *                         x                    y                    z              *
 *                                                                                  *
 * H               1      0.00000              0.00000             -0.00000         *
 * H               2     -0.00000             -0.00000             -0.00000         *
 * H               3     -0.00000              0.00000              0.00000         *
 * H               4      0.00000             -0.00000              0.00000         *
 * H               5      0.00000              0.00000             -0.00000         *
 * H               6     -0.00000             -0.00000             -0.00000         *
 * H               7     -0.00000              0.00000              0.00000         *
 * H               8     -0.00000             -0.00000              0.00000         *
 *                                                                                  *
 ************************************************************************************

 *********** Symmetrised Stress Tensor ***********
 *                                               *
 *          Cartesian components (GPa)           *
 * --------------------------------------------- *
 *             x             y             z     *
 *                                               *
 *  x    -50.000007      0.000000      0.000000  *
 *  y      0.000000    -50.000004      0.000000  *
 *  z      0.000000      0.000000    -49.999985  *
 *                                               *
 *  Pressure:   50.0000                          *
 *                                               *
 *************************************************
  
 +------------+-------------+-------------+-----------------+ <-- min LBFGS
 |    Step    |   lambda    |   F.delta'  |    enthalpy     | <-- min LBFGS
 +------------+-------------+-------------+-----------------+ <-- min LBFGS
 |  previous  |    0.000000 |  3.787E-007 |     -116.015956 | <-- min LBFGS
 | trial step |    1.000000 | -7.115E-008 |     -116.015956 | <-- min LBFGS
 +------------+-------------+-------------+-----------------+ <-- min LBFGS
  
 LBFGS: finished iteration     9 with enthalpy= -1.16015956E+002 eV
  
 +-----------+-----------------+-----------------+------------+-----+ <-- LBFGS
 | Parameter |      value      |    tolerance    |    units   | OK? | <-- LBFGS
 +-----------+-----------------+-----------------+------------+-----+ <-- LBFGS
 |  dE/ion   |   5.707407E-011 |   1.000000E-009 |         eV | Yes | <-- LBFGS
 |  |F|max   |   1.140316E-007 |   1.000000E-005 |       eV/A | Yes | <-- LBFGS
 |  |dR|max  |   2.521643E-007 |   1.000000E-005 |          A | Yes | <-- LBFGS
 |   Smax    |   1.472624E-005 |   1.000000E-005 |        GPa | No  | <-- LBFGS
 +-----------+-----------------+-----------------+------------+-----+ <-- LBFGS
  

================================================================================
 Starting LBFGS iteration         10 ...
================================================================================
  
 +------------+-------------+-------------+-----------------+ <-- min LBFGS
 |    Step    |   lambda    |   F.delta'  |    enthalpy     | <-- min LBFGS
 +------------+-------------+-------------+-----------------+ <-- min LBFGS
 |  previous  |    0.000000 |  7.602E-008 |     -116.015956 | <-- min LBFGS
 +------------+-------------+-------------+-----------------+ <-- min LBFGS
  

--------------------------------------------------------------------------------
 LBFGS: starting iteration        10 with trial guess (lambda=  1.000000)
--------------------------------------------------------------------------------

                           -------------------------------
                                      Unit Cell
                           -------------------------------
        Real Lattice(A)              Reciprocal Lattice(1/A)
     2.9085728     0.0000000     0.0000000        2.160229660  -0.000000000   0.000000000
     0.0000000     2.8767174     0.0000000       -0.000000000   2.184151035   0.000000000
     0.0000000     0.0000000     2.8964071        0.000000000   0.000000000   2.169303239

                       Lattice parameters(A)       Cell Angles
                    a =      2.908573          alpha =   90.000000
                    b =      2.876717          beta  =   90.000000
                    c =      2.896407          gamma =   90.000000

                Current cell volume =            24.234650 A**3

                           -------------------------------
                                     Cell Contents
                           -------------------------------

            xxxxxxxxxxxxxxxxxxxxxxxxxxxxxxxxxxxxxxxxxxxxxxxxxxxxxxxxxxxxxxxxx
            x  Element         Atom        Fractional coordinates of atoms  x
            x                 Number           u          v          w      x
            x---------------------------------------------------------------x
            x  H                 1         0.000000   0.407636   0.412337   x
            x  H                 2        -0.000000   0.092364   0.912337   x
            x  H                 3        -0.000000   0.907636   0.087663   x
            x  H                 4        -0.000000   0.592364   0.587663   x
            x  H                 5         0.500000   0.907636   0.412337   x
            x  H                 6         0.500000   0.592364   0.912337   x
            x  H                 7         0.500000   0.407636   0.087663   x
            x  H                 8         0.500000   0.092364   0.587663   x
            xxxxxxxxxxxxxxxxxxxxxxxxxxxxxxxxxxxxxxxxxxxxxxxxxxxxxxxxxxxxxxxxx


------------------------------------------------------------------------ <-- SCF
SCF loop      Energy                           Energy gain       Timer   <-- SCF
                                               per atom          (sec)   <-- SCF
------------------------------------------------------------------------ <-- SCF
Initial  -1.23578995E+002                                        256.71  <-- SCF
      1  -1.23578995E+002                    9.12363360E-013     257.80  <-- SCF
      2  -1.23578995E+002                    2.41685658E-014     259.39  <-- SCF
      3  -1.23578995E+002                   -3.59507417E-013     260.94  <-- SCF
      4  -1.23578995E+002                   -1.45011395E-013     262.50  <-- SCF
------------------------------------------------------------------------ <-- SCF
 
Final energy =  -123.5789952029     eV
(energy not corrected for finite basis set)
 

 ******************************** Symmetrised Forces ********************************
 *                                                                                  *
 *                           Cartesian components (eV/A)                            *
 * -------------------------------------------------------------------------------- *
 *                         x                    y                    z              *
 *                                                                                  *
 * H               1     -0.00000              0.00000             -0.00000         *
 * H               2      0.00000             -0.00000             -0.00000         *
 * H               3     -0.00000              0.00000              0.00000         *
 * H               4     -0.00000             -0.00000              0.00000         *
 * H               5     -0.00000              0.00000             -0.00000         *
 * H               6      0.00000             -0.00000             -0.00000         *
 * H               7     -0.00000              0.00000              0.00000         *
 * H               8     -0.00000             -0.00000              0.00000         *
 *                                                                                  *
 ************************************************************************************

 *********** Symmetrised Stress Tensor ***********
 *                                               *
 *          Cartesian components (GPa)           *
 * --------------------------------------------- *
 *             x             y             z     *
 *                                               *
 *  x    -50.000008      0.000000      0.000000  *
 *  y      0.000000    -49.999994      0.000000  *
 *  z      0.000000      0.000000    -50.000000  *
 *                                               *
 *  Pressure:   50.0000                          *
 *                                               *
 *************************************************
  
 +------------+-------------+-------------+-----------------+ <-- min LBFGS
 |    Step    |   lambda    |   F.delta'  |    enthalpy     | <-- min LBFGS
 +------------+-------------+-------------+-----------------+ <-- min LBFGS
 |  previous  |    0.000000 |  7.602E-008 |     -116.015956 | <-- min LBFGS
 | trial step |    1.000000 |  3.011E-010 |     -116.015956 | <-- min LBFGS
 +------------+-------------+-------------+-----------------+ <-- min LBFGS
  
 LBFGS: finished iteration    10 with enthalpy= -1.16015956E+002 eV
  
 +-----------+-----------------+-----------------+------------+-----+ <-- LBFGS
 | Parameter |      value      |    tolerance    |    units   | OK? | <-- LBFGS
 +-----------+-----------------+-----------------+------------+-----+ <-- LBFGS
 |  dE/ion   |   1.238639E-013 |   1.000000E-009 |         eV | Yes | <-- LBFGS
 |  |F|max   |   1.164601E-007 |   1.000000E-005 |       eV/A | Yes | <-- LBFGS
 |  |dR|max  |   1.013610E-007 |   1.000000E-005 |          A | Yes | <-- LBFGS
 |   Smax    |   7.661756E-006 |   1.000000E-005 |        GPa | Yes | <-- LBFGS
 +-----------+-----------------+-----------------+------------+-----+ <-- LBFGS
  
 LBFGS: Geometry optimization completed successfully.

================================================================================
 LBFGS: Final Configuration:
================================================================================

                           -------------------------------
                                      Unit Cell
                           -------------------------------
        Real Lattice(A)              Reciprocal Lattice(1/A)
     2.9085728     0.0000000     0.0000000        2.160229660  -0.000000000   0.000000000
     0.0000000     2.8767174     0.0000000       -0.000000000   2.184151035   0.000000000
     0.0000000     0.0000000     2.8964071        0.000000000   0.000000000   2.169303239

                       Lattice parameters(A)       Cell Angles
                    a =      2.908573          alpha =   90.000000
                    b =      2.876717          beta  =   90.000000
                    c =      2.896407          gamma =   90.000000

                Current cell volume =            24.234650 A**3

                           -------------------------------
                                     Cell Contents
                           -------------------------------

            xxxxxxxxxxxxxxxxxxxxxxxxxxxxxxxxxxxxxxxxxxxxxxxxxxxxxxxxxxxxxxxxx
            x  Element         Atom        Fractional coordinates of atoms  x
            x                 Number           u          v          w      x
            x---------------------------------------------------------------x
            x  H                 1         0.000000   0.407636   0.412337   x
            x  H                 2        -0.000000   0.092364   0.912337   x
            x  H                 3        -0.000000   0.907636   0.087663   x
            x  H                 4        -0.000000   0.592364   0.587663   x
            x  H                 5         0.500000   0.907636   0.412337   x
            x  H                 6         0.500000   0.592364   0.912337   x
            x  H                 7         0.500000   0.407636   0.087663   x
            x  H                 8         0.500000   0.092364   0.587663   x
            xxxxxxxxxxxxxxxxxxxxxxxxxxxxxxxxxxxxxxxxxxxxxxxxxxxxxxxxxxxxxxxxx


 LBFGS: Final Enthalpy     = -1.16015956E+002 eV
 LBFGS: Final <frequency>  =     776.35037 cm-1
 LBFGS: Final bulk modulus =     138.55509 GPa

 ******************************** Symmetrised Forces ********************************
 *                                                                                  *
 *                           Cartesian components (eV/A)                            *
 * -------------------------------------------------------------------------------- *
 *                         x                    y                    z              *
 *                                                                                  *
 * H               1     -0.00000              0.00000             -0.00000         *
 * H               2      0.00000             -0.00000             -0.00000         *
 * H               3     -0.00000              0.00000              0.00000         *
 * H               4     -0.00000             -0.00000              0.00000         *
 * H               5     -0.00000              0.00000             -0.00000         *
 * H               6      0.00000             -0.00000             -0.00000         *
 * H               7     -0.00000              0.00000              0.00000         *
 * H               8     -0.00000             -0.00000              0.00000         *
 *                                                                                  *
 ************************************************************************************

 *********** Symmetrised Stress Tensor ***********
 *                                               *
 *          Cartesian components (GPa)           *
 * --------------------------------------------- *
 *             x             y             z     *
 *                                               *
 *  x    -50.000008      0.000000      0.000000  *
 *  y      0.000000    -49.999994      0.000000  *
 *  z      0.000000      0.000000    -50.000000  *
 *                                               *
 *  Pressure:   50.0000                          *
 *                                               *
 *************************************************

 Pseudo atomic calculation performed for H 1s1

 Converged in 24 iterations to a total energy of -12.4855 eV

Charge spilling parameter for spin component 1 = 0.64%

            Orbital Populations       
     Ion    Atom   Orbital             Charge
  -------------------------------------------
      H     1      S                    1.000
      H     2      S                    1.000
      H     3      S                    1.000
      H     4      S                    1.000
      H     5      S                    1.000
      H     6      S                    1.000
      H     7      S                    1.000
      H     8      S                    1.000
  -------------------------------------------
                           Total:       8.000
  -------------------------------------------

     Atomic Populations (Mulliken)
     -----------------------------
Species          Ion     s      p      d      f     Total  Charge (e)
=====================================================================
  H               1     1.00   0.00   0.00   0.00   1.00     0.00
  H               2     1.00   0.00   0.00   0.00   1.00     0.00
  H               3     1.00   0.00   0.00   0.00   1.00     0.00
  H               4     1.00   0.00   0.00   0.00   1.00     0.00
  H               5     1.00   0.00   0.00   0.00   1.00     0.00
  H               6     1.00   0.00   0.00   0.00   1.00     0.00
  H               7     1.00   0.00   0.00   0.00   1.00     0.00
  H               8     1.00   0.00   0.00   0.00   1.00     0.00
=====================================================================

                 Bond                   Population      Length (A)
======================================================================
               H 2 -- H 3                    1.43        0.73503
               H 6 -- H 7                    1.43        0.73503
               H 5 -- H 8                    1.43        0.73503
               H 1 -- H 4                    1.43        0.73503
               H 5 -- H 6                   -0.24        1.70876
               H 3 -- H 4                   -0.24        1.70876
               H 1 -- H 2                   -0.24        1.70876
               H 7 -- H 8                   -0.24        1.70876
               H 6 -- H 8                   -0.24        1.71849
               H 2 -- H 4                   -0.24        1.71849
               H 5 -- H 7                   -0.24        1.71849
               H 1 -- H 3                   -0.24        1.71849
               H 3 -- H 5                   -0.19        1.73184
               H 1 -- H 7                   -0.19        1.73184
               H 4 -- H 6                   -0.19        1.73184
               H 2 -- H 8                   -0.19        1.73184
               H 3 -- H 6                   -0.21        1.78756
               H 4 -- H 5                   -0.21        1.78756
               H 2 -- H 7                   -0.21        1.78756
               H 1 -- H 8                   -0.21        1.78756
               H 4 -- H 8                   -0.24        2.04544
               H 2 -- H 6                   -0.24        2.04544
               H 3 -- H 7                   -0.24        2.04544
               H 1 -- H 5                   -0.24        2.04544
               H 2 -- H 5                   -0.24        2.12006
               H 1 -- H 6                   -0.24        2.12006
               H 3 -- H 8                   -0.24        2.12006
               H 4 -- H 7                   -0.24        2.12006
======================================================================


Writing analysis data to Cmca4.castep_bin

Writing model to Cmca4.check
 
 A BibTeX formatted list of references used in this run has been written to 
 Cmca4.bib
 
Initialisation time =      4.18 s
Calculation time    =    261.07 s
Finalisation time   =      5.84 s
Total time          =    271.10 s
Peak Memory Use     = 558116 kB
  
Overall parallel efficiency rating: Excellent (94%)                             
  
Data was distributed by:-
k-point (32-way); efficiency rating: Excellent (95%)                            
  
Parallel notes:
1) Calculation only took 265.3 s, so efficiency estimates may be inaccurate.    
