 +-------------------------------------------------+
 |                                                 |
 |      CCC   AA    SSS  TTTTT  EEEEE  PPPP        |
 |     C     A  A  S       T    E      P   P       |
 |     C     AAAA   SS     T    EEE    PPPP        |
 |     C     A  A     S    T    E      P           |
 |      CCC  A  A  SSS     T    EEEEE  P           |
 |                                                 |
 +-------------------------------------------------+
 |                                                 |
 | Welcome to Academic Release CASTEP version 18.1 |          
 | Ab Initio Total Energy Program                  |
 |                                                 |
 | Authors:                                        |
 | M. Segall, M. Probert, C. Pickard, P. Hasnip,   |
 | S. Clark, K. Refson, J. R. Yates, M. Payne      |
 |                                                 |
 | Contributors:                                   |
 | P. Lindan, P. Haynes, J. White, V. Milman,      |
 | N. Govind, M. Gibson, P. Tulip, V. Cocula,      |
 | B. Montanari, D. Quigley, M. Glover,            |
 | L. Bernasconi, A. Perlov, M. Plummer,           |
 | E. McNellis, J. Meyer, J. Gale, D. Jochym       |
 | J. Aarons, B. Walker, R. Gillen, D. Jones       |
 | T. Green, I. J. Bush, C. J. Armstrong,          |
 | E. J. Higgins, E. L. Brown, M. S. McFly,        |
 | J. Wilkins, B-C. Shih, P. J. P. Byrne           |
 |                                                 |
 | Copyright (c) 2000 - 2017                       |
 |                                                 |
 |     Distributed under the terms of an           |
 |     Agreement between the United Kingdom        |
 |     Car-Parrinello (UKCP) Consortium,           |
 |     Daresbury Laboratory and Accelrys, Inc.     |
 |                                                 |
 | Please cite                                     |
 |                                                 |
 |     "First principles methods using CASTEP"     |
 |                                                 |
 |         Zeitschrift fuer Kristallographie       |
 |           220(5-6) pp. 567-570 (2005)           |
 |                                                 |
 | S. J. Clark, M. D. Segall, C. J. Pickard,       |
 | P. J. Hasnip, M. J. Probert, K. Refson,         |
 | M. C. Payne                                     |
 |                                                 |
 |       in all publications arising from          |
 |              your use of CASTEP                 |
 |                                                 |
 +-------------------------------------------------+


 Compiled for linux_x86_64_gfortran4.8 on Thu, 19 Jul 2018 15:42:32 +0100
 from code version 70483bd0ad64+  Sun, 10 Dec 2017 12:18:29 +0000
 Compiler: GNU Fortran 4.8.5; Optimisation: fast
 MATHLIBS: Intel MKL(2018.0.0) (LAPACK version 3.7.0)
 FFT Lib : mkl
 Fundamental constants values: CODATA 2014

 Run started: Thu, 27 Aug 2020 11:45:44 +0100

 Atomic calculation performed for H: 1s1

 Converged in 41 iterations to an ae energy of -12.488 eV

   ============================================================                
   | Pseudopotential Report - Date of generation 27-08-2020   |                
   ------------------------------------------------------------                
   | Element: H Ionic charge:  1.00 Level of theory: PBE      |                
   | Atomic Solver: Koelling-Harmon                           |                
   |                                                          |                
   |               Reference Electronic Structure             |                
   |         Orbital         Occupation         Energy        |                
   |            1s              1.000           -0.239        |                
   |                                                          |                
   |                 Pseudopotential Definition               |                
   |        Beta     l      e      Rc     scheme   norm       |                
   |         loc     0   -0.239   0.702     qc      1         |                
   |                                                          |                
   | No charge augmentation                                   |                
   | No partial core correction                               |                
   ------------------------------------------------------------                
   | "0|0.7|2|6|8|10L(qc=10)"                                 |                
   ------------------------------------------------------------                
   |      Author: Chris J. Pickard, Cambridge University      |                
   ============================================================                

 Pseudo atomic calculation performed for H 1s1

 Converged in 24 iterations to a total energy of -12.4855 eV

 Calculation parallelised over 32 processes.
 Data is distributed by k-point(32-way)

 ************************************ Title ************************************
 

 ***************************** General Parameters ******************************
  
 output verbosity                               : normal  (1)
 write checkpoint data to                       : Cmca4.check
 type of calculation                            : geometry optimization
 stress calculation                             : on
 density difference calculation                 : off
 electron localisation func (ELF) calculation   : off
 Hirshfeld analysis                             : off
 unlimited duration calculation
 timing information                             : on
 memory usage estimate                          : on
 write extra output files                       : on
 write final potential to formatted file        : off
 write final density to formatted file          : off
 write structure in CELL formatted file         : on
 write BibTeX reference list                    : on
 write OTFG pseudopotential files               : on
 write electrostatic potential file             : on
 write bands file                               : on
 checkpoint writing                             : both castep_bin and check files
  
 output         length unit                     : A
 output           mass unit                     : amu
 output           time unit                     : ps
 output         charge unit                     : e
 output           spin unit                     : hbar/2
 output         energy unit                     : eV
 output          force unit                     : eV/A
 output       velocity unit                     : A/ps
 output       pressure unit                     : GPa
 output     inv_length unit                     : 1/A
 output      frequency unit                     : cm-1
 output force constant unit                     : eV/A**2
 output         volume unit                     : A**3
 output   IR intensity unit                     : (D/A)**2/amu
 output         dipole unit                     : D
 output         efield unit                     : eV/A/e
 output        entropy unit                     : J/mol/K
  
 wavefunctions paging                           : none
 random number generator seed                   : randomised (114545914)
 data distribution                              : optimal for this architecture
 optimization strategy                          : maximize speed(+++)

 *********************** Exchange-Correlation Parameters ***********************
  
 using functional                               : Perdew Burke Ernzerhof
 relativistic treatment                         : Koelling-Harmon
 DFT+D: Semi-empirical dispersion correction    : off

 ************************* Pseudopotential Parameters **************************
  
 pseudopotential representation                 : reciprocal space
 <beta|phi> representation                      : reciprocal space
 spin-orbit coupling                            : off

 **************************** Basis Set Parameters *****************************
  
 plane wave basis set cut-off                   :  1600.0000   eV
 size of standard grid                          :     2.0000
 size of   fine   gmax                          :    40.9853   1/A
 finite basis set correction                    : automatic
 number of sample energies                      :          3
           sample  spacing                      :     5.0000   eV

 **************************** Electronic Parameters ****************************
  
 number of  electrons                           :  8.000    
 net charge of system                           :  0.000    
 treating system as non-spin-polarized
 number of bands                                :          4

 ********************* Electronic Minimization Parameters **********************
  
 Method: Treating system as non-metallic,
         and number of  SD  steps               :          1
         and number of  CG  steps               :          4
  
 total energy / atom convergence tol.           : 0.1000E-10   eV
 eigen-energy convergence tolerance             : 0.2000E-10   eV
 max force / atom convergence tol.              : ignored
 convergence tolerance window                   :          3   cycles
 max. number of SCF cycles                      :        100
 periodic dipole correction                     : NONE

 ************************** Density Mixing Parameters **************************
  
 density-mixing scheme                          : Broyden
 max. length of mixing history                  :         20
 charge density mixing amplitude                : 0.8000    
 cut-off energy for mixing                      :  1600.       eV

 *********************** Population Analysis Parameters ************************
  
 Population analysis with cutoff                :  3.000       A
 Population analysis output                     : summary and pdos components

 ********************** Geometry Optimization Parameters ***********************
  
 optimization method                            : LBFGS
 max. no. of LBFGS updates                      : unbounded
 variable cell method                           : fixed basis quality
 max. number of steps                           :        200
 estimated bulk modulus                         :  500.0       GPa
 estimated <frequency>                          :  1668.       cm-1
 geom line minimiser                            : on
 with line minimiser tolerance                  :     0.4000
 total energy convergence tolerance             : 0.1000E-08   eV/atom
        max ionic |force| tolerance             : 0.1000E-04   eV/A
 max ionic |displacement| tolerance             : 0.1000E-04   A
   max |stress component| tolerance             : 0.1000E-04   GPa
 convergence tolerance window                   :          2   steps
 backup results every                           :      14400   seconds
 write geom trajectory file                     : on

 *******************************************************************************
  

                           -------------------------------
                                      Unit Cell
                           -------------------------------
        Real Lattice(A)                      Reciprocal Lattice(1/A)
     1.9534152     0.0000000     0.0000000        3.216512913  -0.000000000   0.000000000
     0.0000000     3.1189866     0.0000000       -0.000000000   2.014495748   0.000000000
     0.0000000     0.0000000     2.9959577        0.000000000   0.000000000   2.097220942

                       Lattice parameters(A)       Cell Angles
                    a =      1.953415          alpha =   90.000000
                    b =      3.118987          beta  =   90.000000
                    c =      2.995958          gamma =   90.000000

                       Current cell volume =            18.253400       A**3
                                   density =             0.441754   AMU/A**3
                                           =             0.733550     g/cm^3

                           -------------------------------
                                     Cell Contents
                           -------------------------------
                         Total number of ions in cell =    8
                      Total number of species in cell =    1
                        Max number of any one species =    8

            xxxxxxxxxxxxxxxxxxxxxxxxxxxxxxxxxxxxxxxxxxxxxxxxxxxxxxxxxxxx
            x  Element    Atom        Fractional coordinates of atoms  x
            x            Number           u          v          w      x
            x----------------------------------------------------------x
            x  H            1        -0.000000   0.391651   0.446335   x 
            x  H            2         0.000000   0.108349   0.946335   x 
            x  H            3        -0.000000   0.891651   0.053665   x 
            x  H            4        -0.000000   0.608349   0.553665   x 
            x  H            5         0.500000   0.891651   0.446335   x 
            x  H            6         0.500000   0.608349   0.946335   x 
            x  H            7         0.500000   0.391651   0.053665   x 
            x  H            8         0.500000   0.108349   0.553665   x 
            xxxxxxxxxxxxxxxxxxxxxxxxxxxxxxxxxxxxxxxxxxxxxxxxxxxxxxxxxxxx


                         No user defined ionic velocities

                           -------------------------------
                                   Details of Species
                           -------------------------------

                               Mass of species in AMU
                                    H    1.0079400

                          Electric Quadrupole Moment (Barn)
                                    H    0.0028600 Isotope  2

                          Files used for pseudopotentials:
                                    H 0|0.7|2|6|8|10L(qc=10)

                           -------------------------------
                              k-Points For BZ Sampling
                           -------------------------------
                       MP grid size for SCF calculation is 18 18 18
                            with an offset of   0.000  0.000  0.000
                       Number of kpoints used =           729

                           -------------------------------
                               Symmetry and Constraints
                           -------------------------------

                      Cell is a supercell containing 2 primitive cells
                      Maximum deviation from symmetry = 0.354934E-14     ANG

                      Number of symmetry operations   =          16
                      Number of ionic constraints     =           3
                      Point group of crystal =     8: D2h, mmm, 2/m 2/m 2/m
                      Space group of crystal =    64: Cmce, -C 2bc 2

             Set iprint > 1 for details on symmetry rotations/translations

                         Centre of mass is constrained
             Set iprint > 1 for details of linear ionic constraints

                         Number of cell constraints= 3
                         Cell constraints are:  1 2 3 0 0 0

                         External pressure/stress (GPa)
                         90.00000   0.00000   0.00000
                                   90.00000   0.00000
                                             90.00000
  
+---------------- MEMORY AND SCRATCH DISK ESTIMATES PER PROCESS --------------+
|                                                     Memory          Disk    |
| Baseline code, static data and system overhead      479.0 MB         0.0 MB |
| BLAS internal memory storage                          0.0 MB         0.0 MB |
| Model and support data                               27.9 MB         0.0 MB |
| Electronic energy minimisation requirements          18.1 MB         0.0 MB |
| Force calculation requirements                        5.6 MB         0.0 MB |
| Stress calculation requirements                       7.0 MB         0.0 MB |
|                                               ----------------------------- |
| Approx. total storage required per process          524.9 MB         0.0 MB |
|                                                                             |
| Requirements will fluctuate during execution and may exceed these estimates |
+-----------------------------------------------------------------------------+
Calculating finite basis set correction with  3 cut-off energies.
Calculating total energy with cut-off of 1590.000 eV.
------------------------------------------------------------------------ <-- SCF
SCF loop      Energy                           Energy gain       Timer   <-- SCF
                                               per atom          (sec)   <-- SCF
------------------------------------------------------------------------ <-- SCF
Initial   1.96473501E+002                                          4.76  <-- SCF
      1  -1.01477999E+002                    3.72439375E+001       6.37  <-- SCF
      2  -1.21109032E+002                    2.45387905E+000       7.71  <-- SCF
      3  -1.20718065E+002                   -4.88708970E-002       9.68  <-- SCF
      4  -1.20701964E+002                   -2.01252412E-003      11.45  <-- SCF
      5  -1.20702427E+002                    5.78033691E-005      13.18  <-- SCF
      6  -1.20702471E+002                    5.46590128E-006      14.87  <-- SCF
      7  -1.20702471E+002                    7.11719854E-009      16.59  <-- SCF
      8  -1.20702471E+002                    3.96307079E-010      17.94  <-- SCF
      9  -1.20702471E+002                    8.34117628E-012      19.18  <-- SCF
     10  -1.20702471E+002                    1.63137819E-013      20.49  <-- SCF
------------------------------------------------------------------------ <-- SCF
 
Final energy =  -120.7024707143     eV
(energy not corrected for finite basis set)
 
Calculating total energy with cut-off of 1595.000 eV.
------------------------------------------------------------------------ <-- SCF
SCF loop      Energy                           Energy gain       Timer   <-- SCF
                                               per atom          (sec)   <-- SCF
------------------------------------------------------------------------ <-- SCF
Initial  -1.20702471E+002                                         21.30  <-- SCF
      1  -1.20702488E+002                    2.16149965E-006      22.59  <-- SCF
      2  -1.20702488E+002                    1.87910599E-012      23.86  <-- SCF
      3  -1.20702488E+002                    6.03721711E-010      25.08  <-- SCF
      4  -1.20702488E+002                    3.67543465E-011      26.29  <-- SCF
      5  -1.20702488E+002                    1.27791292E-012      27.50  <-- SCF
      6  -1.20702488E+002                    6.04214146E-015      28.80  <-- SCF
------------------------------------------------------------------------ <-- SCF
 
Final energy =  -120.7024880114     eV
(energy not corrected for finite basis set)
 
Calculating total energy with cut-off of 1600.000 eV.
------------------------------------------------------------------------ <-- SCF
SCF loop      Energy                           Energy gain       Timer   <-- SCF
                                               per atom          (sec)   <-- SCF
------------------------------------------------------------------------ <-- SCF
Initial  -1.20702488E+002                                         29.61  <-- SCF
      1  -1.20702504E+002                    2.03829029E-006      30.95  <-- SCF
      2  -1.20702504E+002                    2.65854224E-012      32.15  <-- SCF
      3  -1.20702504E+002                    5.73495899E-010      33.37  <-- SCF
      4  -1.20702504E+002                    3.52287058E-011      34.60  <-- SCF
      5  -1.20702504E+002                    1.58606213E-012      36.03  <-- SCF
      6  -1.20702504E+002                    1.96369597E-013      37.27  <-- SCF
------------------------------------------------------------------------ <-- SCF
 
Final energy =  -120.7025043227     eV
(energy not corrected for finite basis set)
 
 For future reference: finite basis dEtot/dlog(Ecut) =      -0.005381eV
 Total energy corrected for finite basis set =    -120.702504 eV
 
+---------------- MEMORY AND SCRATCH DISK ESTIMATES PER PROCESS --------------+
|                                                     Memory          Disk    |
| Model and support data                               36.7 MB         0.0 MB |
| Electronic energy minimisation requirements          18.1 MB         0.0 MB |
| Geometry minimisation requirements                   23.7 MB         0.0 MB |
|                                               ----------------------------- |
| Approx. total storage required per process           78.4 MB         0.0 MB |
|                                                                             |
| Requirements will fluctuate during execution and may exceed these estimates |
+-----------------------------------------------------------------------------+
 

 ******************************** Symmetrised Forces ********************************
 *                                                                                  *
 *                           Cartesian components (eV/A)                            *
 * -------------------------------------------------------------------------------- *
 *                         x                    y                    z              *
 *                                                                                  *
 * H               1     -0.00000             -0.00000             -0.00000         *
 * H               2     -0.00000              0.00000             -0.00000         *
 * H               3      0.00000             -0.00000              0.00000         *
 * H               4      0.00000              0.00000              0.00000         *
 * H               5      0.00000             -0.00000             -0.00000         *
 * H               6      0.00000              0.00000             -0.00000         *
 * H               7      0.00000             -0.00000              0.00000         *
 * H               8      0.00000              0.00000              0.00000         *
 *                                                                                  *
 ************************************************************************************

 *********** Symmetrised Stress Tensor ***********
 *                                               *
 *          Cartesian components (GPa)           *
 * --------------------------------------------- *
 *             x             y             z     *
 *                                               *
 *  x   -100.000656      0.000000      0.000000  *
 *  y      0.000000   -100.000696      0.000000  *
 *  z      0.000000      0.000000   -100.000666  *
 *                                               *
 *  Pressure:  100.0007                          *
 *                                               *
 *************************************************
 LBFGS: finished iteration     0 with enthalpy= -1.10448916E+002 eV
  
 +-----------+-----------------+-----------------+------------+-----+ <-- LBFGS
 | Parameter |      value      |    tolerance    |    units   | OK? | <-- LBFGS
 +-----------+-----------------+-----------------+------------+-----+ <-- LBFGS
 |  dE/ion   |   0.000000E+000 |   1.000000E-009 |         eV | No  | <-- LBFGS
 |  |F|max   |   7.195421E-007 |   1.000000E-005 |       eV/A | Yes | <-- LBFGS
 |  |dR|max  |   0.000000E+000 |   1.000000E-005 |          A | No  | <-- LBFGS
 |   Smax    |   1.000070E+001 |   1.000000E-005 |        GPa | No  | <-- LBFGS
 +-----------+-----------------+-----------------+------------+-----+ <-- LBFGS
  

================================================================================
 Starting LBFGS iteration          1 ...
================================================================================
  
 +------------+-------------+-------------+-----------------+ <-- min LBFGS
 |    Step    |   lambda    |   F.delta'  |    enthalpy     | <-- min LBFGS
 +------------+-------------+-------------+-----------------+ <-- min LBFGS
 |  previous  |    0.000000 |    0.072522 |     -110.448916 | <-- min LBFGS
 +------------+-------------+-------------+-----------------+ <-- min LBFGS
  

--------------------------------------------------------------------------------
 LBFGS: starting iteration         1 with trial guess (lambda=  1.000000)
--------------------------------------------------------------------------------
 
+---------------- MEMORY AND SCRATCH DISK ESTIMATES PER PROCESS --------------+
|                                                     Memory          Disk    |
| Model and support data                               36.9 MB         0.0 MB |
| Electronic energy minimisation requirements          18.3 MB         0.0 MB |
| Geometry minimisation requirements                   24.0 MB         0.0 MB |
|                                               ----------------------------- |
| Approx. total storage required per process           79.2 MB         0.0 MB |
|                                                                             |
| Requirements will fluctuate during execution and may exceed these estimates |
+-----------------------------------------------------------------------------+
 

                           -------------------------------
                                      Unit Cell
                           -------------------------------
        Real Lattice(A)              Reciprocal Lattice(1/A)
     1.9664389     0.0000000     0.0000000        3.195210115  -0.000000000   0.000000000
     0.0000000     3.1397813     0.0000000       -0.000000000   2.001153793   0.000000000
     0.0000000     0.0000000     3.0159321        0.000000000   0.000000000   2.083331142

                       Lattice parameters(A)       Cell Angles
                    a =      1.966439          alpha =   90.000000
                    b =      3.139781          beta  =   90.000000
                    c =      3.015932          gamma =   90.000000

                Current cell volume =            18.620932 A**3

                           -------------------------------
                                     Cell Contents
                           -------------------------------

            xxxxxxxxxxxxxxxxxxxxxxxxxxxxxxxxxxxxxxxxxxxxxxxxxxxxxxxxxxxxxxxxx
            x  Element         Atom        Fractional coordinates of atoms  x
            x                 Number           u          v          w      x
            x---------------------------------------------------------------x
            x  H                 1         0.000000   0.391651   0.446335   x
            x  H                 2         0.000000   0.108349   0.946335   x
            x  H                 3         0.000000   0.891651   0.053665   x
            x  H                 4         0.000000   0.608349   0.553665   x
            x  H                 5         0.500000   0.891651   0.446335   x
            x  H                 6         0.500000   0.608349   0.946335   x
            x  H                 7         0.500000   0.391651   0.053665   x
            x  H                 8         0.500000   0.108349   0.553665   x
            xxxxxxxxxxxxxxxxxxxxxxxxxxxxxxxxxxxxxxxxxxxxxxxxxxxxxxxxxxxxxxxxx


------------------------------------------------------------------------ <-- SCF
SCF loop      Energy                           Energy gain       Timer   <-- SCF
                                               per atom          (sec)   <-- SCF
------------------------------------------------------------------------ <-- SCF
Initial  -1.20921910E+002                                         38.78  <-- SCF
      1  -1.20924823E+002                    3.64174999E-004      40.13  <-- SCF
      2  -1.20924836E+002                    1.56403259E-006      41.83  <-- SCF
      3  -1.20924728E+002                   -1.35007520E-005      43.54  <-- SCF
      4  -1.20924725E+002                   -4.06623241E-007      45.27  <-- SCF
      5  -1.20924725E+002                    1.30594906E-008      46.96  <-- SCF
      6  -1.20924725E+002                    1.26089221E-009      48.70  <-- SCF
      7  -1.20924725E+002                    3.13285035E-012      49.96  <-- SCF
      8  -1.20924725E+002                    2.14496022E-013      51.27  <-- SCF
------------------------------------------------------------------------ <-- SCF
 
Final energy =  -120.9247246381     eV
(energy not corrected for finite basis set)
 

 ******************************** Symmetrised Forces ********************************
 *                                                                                  *
 *                           Cartesian components (eV/A)                            *
 * -------------------------------------------------------------------------------- *
 *                         x                    y                    z              *
 *                                                                                  *
 * H               1      0.00000              0.12841              0.06191         *
 * H               2      0.00000             -0.12841              0.06191         *
 * H               3     -0.00000              0.12841             -0.06191         *
 * H               4      0.00000             -0.12841             -0.06191         *
 * H               5      0.00000              0.12841              0.06191         *
 * H               6      0.00000             -0.12841              0.06191         *
 * H               7     -0.00000              0.12841             -0.06191         *
 * H               8      0.00000             -0.12841             -0.06191         *
 *                                                                                  *
 ************************************************************************************

 *********** Symmetrised Stress Tensor ***********
 *                                               *
 *          Cartesian components (GPa)           *
 * --------------------------------------------- *
 *             x             y             z     *
 *                                               *
 *  x    -95.164228     -0.000000      0.000000  *
 *  y     -0.000000    -91.672301      0.000000  *
 *  z      0.000000      0.000000    -94.613079  *
 *                                               *
 *  Pressure:   93.8165                          *
 *                                               *
 *************************************************
  
 +------------+-------------+-------------+-----------------+ <-- min LBFGS
 |    Step    |   lambda    |   F.delta'  |    enthalpy     | <-- min LBFGS
 +------------+-------------+-------------+-----------------+ <-- min LBFGS
 |  previous  |    0.000000 |    0.072522 |     -110.448916 | <-- min LBFGS
 | trial step |    1.000000 |    0.028047 |     -110.464680 | <-- min LBFGS
 +------------+-------------+-------------+-----------------+ <-- min LBFGS
  

--------------------------------------------------------------------------------
 LBFGS: improving iteration         1 with line minimization (lambda=  1.630603)
--------------------------------------------------------------------------------
 
+---------------- MEMORY AND SCRATCH DISK ESTIMATES PER PROCESS --------------+
|                                                     Memory          Disk    |
| Model and support data                               37.0 MB         0.0 MB |
| Electronic energy minimisation requirements          18.5 MB         0.0 MB |
| Geometry minimisation requirements                   24.2 MB         0.0 MB |
|                                               ----------------------------- |
| Approx. total storage required per process           79.7 MB         0.0 MB |
|                                                                             |
| Requirements will fluctuate during execution and may exceed these estimates |
+-----------------------------------------------------------------------------+
 

                           -------------------------------
                                      Unit Cell
                           -------------------------------
        Real Lattice(A)              Reciprocal Lattice(1/A)
     1.9746516     0.0000000     0.0000000        3.181920985  -0.000000000   0.000000000
     0.0000000     3.1528945     0.0000000       -0.000000000   1.992830804   0.000000000
     0.0000000     0.0000000     3.0285280        0.000000000   0.000000000   2.074666395

                       Lattice parameters(A)       Cell Angles
                    a =      1.974652          alpha =   90.000000
                    b =      3.152895          beta  =   90.000000
                    c =      3.028528          gamma =   90.000000

                Current cell volume =            18.855216 A**3

                           -------------------------------
                                     Cell Contents
                           -------------------------------

            xxxxxxxxxxxxxxxxxxxxxxxxxxxxxxxxxxxxxxxxxxxxxxxxxxxxxxxxxxxxxxxxx
            x  Element         Atom        Fractional coordinates of atoms  x
            x                 Number           u          v          w      x
            x---------------------------------------------------------------x
            x  H                 1         0.000000   0.391651   0.446335   x
            x  H                 2         0.000000   0.108349   0.946335   x
            x  H                 3         0.000000   0.891651   0.053665   x
            x  H                 4         0.000000   0.608349   0.553665   x
            x  H                 5         0.500000   0.891651   0.446335   x
            x  H                 6         0.500000   0.608349   0.946335   x
            x  H                 7         0.500000   0.391651   0.053665   x
            x  H                 8         0.500000   0.108349   0.553665   x
            xxxxxxxxxxxxxxxxxxxxxxxxxxxxxxxxxxxxxxxxxxxxxxxxxxxxxxxxxxxxxxxxx


------------------------------------------------------------------------ <-- SCF
SCF loop      Energy                           Energy gain       Timer   <-- SCF
                                               per atom          (sec)   <-- SCF
------------------------------------------------------------------------ <-- SCF
Initial  -1.21058032E+002                                         52.75  <-- SCF
      1  -1.21059196E+002                    1.45420330E-004      54.08  <-- SCF
      2  -1.21059201E+002                    6.74559089E-007      55.81  <-- SCF
      3  -1.21059158E+002                   -5.33681827E-006      57.55  <-- SCF
      4  -1.21059157E+002                   -1.60378002E-007      59.26  <-- SCF
      5  -1.21059157E+002                    5.28680731E-009      60.98  <-- SCF
      6  -1.21059157E+002                    5.12159100E-010      62.69  <-- SCF
      7  -1.21059157E+002                    1.20238615E-012      63.94  <-- SCF
      8  -1.21059157E+002                    7.25056975E-014      65.21  <-- SCF
------------------------------------------------------------------------ <-- SCF
 
Final energy =  -121.0591571399     eV
(energy not corrected for finite basis set)
 

 ******************************** Symmetrised Forces ********************************
 *                                                                                  *
 *                           Cartesian components (eV/A)                            *
 * -------------------------------------------------------------------------------- *
 *                         x                    y                    z              *
 *                                                                                  *
 * H               1     -0.00000              0.20715              0.09992         *
 * H               2     -0.00000             -0.20715              0.09992         *
 * H               3      0.00000              0.20715             -0.09992         *
 * H               4      0.00000             -0.20715             -0.09992         *
 * H               5     -0.00000              0.20715              0.09992         *
 * H               6     -0.00000             -0.20715              0.09992         *
 * H               7      0.00000              0.20715             -0.09992         *
 * H               8      0.00000             -0.20715             -0.09992         *
 *                                                                                  *
 ************************************************************************************

 *********** Symmetrised Stress Tensor ***********
 *                                               *
 *          Cartesian components (GPa)           *
 * --------------------------------------------- *
 *             x             y             z     *
 *                                               *
 *  x    -92.224059      0.000000      0.000000  *
 *  y      0.000000    -86.669489      0.000000  *
 *  z      0.000000      0.000000    -91.349016  *
 *                                               *
 *  Pressure:   90.0809                          *
 *                                               *
 *************************************************
  
 +------------+-------------+-------------+-----------------+ <-- min LBFGS
 |    Step    |   lambda    |   F.delta'  |    enthalpy     | <-- min LBFGS
 +------------+-------------+-------------+-----------------+ <-- min LBFGS
 |  previous  |    0.000000 |    0.072522 |     -110.448916 | <-- min LBFGS
 | trial step |    1.000000 |    0.028047 |     -110.464680 | <-- min LBFGS
 |  line step |    1.630603 |    0.000599 |     -110.467507 | <-- min LBFGS
 +------------+-------------+-------------+-----------------+ <-- min LBFGS
  
 LBFGS: finished iteration     1 with enthalpy= -1.10467507E+002 eV
  
 +-----------+-----------------+-----------------+------------+-----+ <-- LBFGS
 | Parameter |      value      |    tolerance    |    units   | OK? | <-- LBFGS
 +-----------+-----------------+-----------------+------------+-----+ <-- LBFGS
 |  dE/ion   |   2.323848E-003 |   1.000000E-009 |         eV | No  | <-- LBFGS
 |  |F|max   |   2.299886E-001 |   1.000000E-005 |       eV/A | No  | <-- LBFGS
 |  |dR|max  |   1.150343E-007 |   1.000000E-005 |          A | Yes | <-- LBFGS
 |   Smax    |   3.330511E+000 |   1.000000E-005 |        GPa | No  | <-- LBFGS
 +-----------+-----------------+-----------------+------------+-----+ <-- LBFGS
  

================================================================================
 Starting LBFGS iteration          2 ...
================================================================================
  
 +------------+-------------+-------------+-----------------+ <-- min LBFGS
 |    Step    |   lambda    |   F.delta'  |    enthalpy     | <-- min LBFGS
 +------------+-------------+-------------+-----------------+ <-- min LBFGS
 |  previous  |    0.000000 |    0.052664 |     -110.467507 | <-- min LBFGS
 +------------+-------------+-------------+-----------------+ <-- min LBFGS
  

--------------------------------------------------------------------------------
 LBFGS: starting iteration         2 with trial guess (lambda=  1.000000)
--------------------------------------------------------------------------------
 
+---------------- MEMORY AND SCRATCH DISK ESTIMATES PER PROCESS --------------+
|                                                     Memory          Disk    |
| Model and support data                               38.5 MB         0.0 MB |
| Electronic energy minimisation requirements          19.6 MB         0.0 MB |
| Geometry minimisation requirements                   25.6 MB         0.0 MB |
|                                               ----------------------------- |
| Approx. total storage required per process           83.6 MB         0.0 MB |
|                                                                             |
| Requirements will fluctuate during execution and may exceed these estimates |
+-----------------------------------------------------------------------------+
 

                           -------------------------------
                                      Unit Cell
                           -------------------------------
        Real Lattice(A)              Reciprocal Lattice(1/A)
     2.0028950     0.0000000     0.0000000        3.137051822  -0.000000000   0.000000000
     0.0000000     3.1860899     0.0000000       -0.000000000   1.972067774   0.000000000
     0.0000000     0.0000000     3.0700442        0.000000000   0.000000000   2.046610695

                       Lattice parameters(A)       Cell Angles
                    a =      2.002895          alpha =   90.000000
                    b =      3.186090          beta  =   90.000000
                    c =      3.070044          gamma =   90.000000

                Current cell volume =            19.591191 A**3

                           -------------------------------
                                     Cell Contents
                           -------------------------------

            xxxxxxxxxxxxxxxxxxxxxxxxxxxxxxxxxxxxxxxxxxxxxxxxxxxxxxxxxxxxxxxxx
            x  Element         Atom        Fractional coordinates of atoms  x
            x                 Number           u          v          w      x
            x---------------------------------------------------------------x
            x  H                 1         0.000000   0.398217   0.449632   x
            x  H                 2         0.000000   0.101783   0.949632   x
            x  H                 3         0.000000   0.898217   0.050368   x
            x  H                 4         0.000000   0.601783   0.550368   x
            x  H                 5         0.500000   0.898217   0.449632   x
            x  H                 6         0.500000   0.601783   0.949632   x
            x  H                 7         0.500000   0.398217   0.050368   x
            x  H                 8         0.500000   0.101783   0.550368   x
            xxxxxxxxxxxxxxxxxxxxxxxxxxxxxxxxxxxxxxxxxxxxxxxxxxxxxxxxxxxxxxxxx


------------------------------------------------------------------------ <-- SCF
SCF loop      Energy                           Energy gain       Timer   <-- SCF
                                               per atom          (sec)   <-- SCF
------------------------------------------------------------------------ <-- SCF
Initial  -1.20974394E+002                                         66.81  <-- SCF
      1  -1.21473573E+002                    6.23973957E-002      68.41  <-- SCF
      2  -1.21475624E+002                    2.56332450E-004      70.37  <-- SCF
      3  -1.21437166E+002                   -4.80721901E-003      72.43  <-- SCF
      4  -1.21435622E+002                   -1.93010154E-004      74.51  <-- SCF
      5  -1.21435634E+002                    1.53478143E-006      76.52  <-- SCF
      6  -1.21435636E+002                    1.39676214E-007      78.50  <-- SCF
      7  -1.21435636E+002                    5.10609290E-010      80.45  <-- SCF
      8  -1.21435636E+002                    2.93104282E-011      81.91  <-- SCF
      9  -1.21435636E+002                    8.94236936E-013      83.35  <-- SCF
     10  -1.21435636E+002                    6.04214146E-015      84.80  <-- SCF
------------------------------------------------------------------------ <-- SCF
 
Final energy =  -121.4356355374     eV
(energy not corrected for finite basis set)
 

 ******************************** Symmetrised Forces ********************************
 *                                                                                  *
 *                           Cartesian components (eV/A)                            *
 * -------------------------------------------------------------------------------- *
 *                         x                    y                    z              *
 *                                                                                  *
 * H               1      0.00000             -0.63280             -0.33700         *
 * H               2     -0.00000              0.63280             -0.33700         *
 * H               3      0.00000             -0.63280              0.33700         *
 * H               4      0.00000              0.63280              0.33700         *
 * H               5      0.00000             -0.63280             -0.33700         *
 * H               6      0.00000              0.63280             -0.33700         *
 * H               7      0.00000             -0.63280              0.33700         *
 * H               8      0.00000              0.63280              0.33700         *
 *                                                                                  *
 ************************************************************************************

 *********** Symmetrised Stress Tensor ***********
 *                                               *
 *          Cartesian components (GPa)           *
 * --------------------------------------------- *
 *             x             y             z     *
 *                                               *
 *  x    -87.863267      0.000000      0.000000  *
 *  y      0.000000    -95.415023      0.000000  *
 *  z      0.000000      0.000000    -90.506171  *
 *                                               *
 *  Pressure:   91.2615                          *
 *                                               *
 *************************************************
  
 +------------+-------------+-------------+-----------------+ <-- min LBFGS
 |    Step    |   lambda    |   F.delta'  |    enthalpy     | <-- min LBFGS
 +------------+-------------+-------------+-----------------+ <-- min LBFGS
 |  previous  |    0.000000 |    0.052664 |     -110.467507 | <-- min LBFGS
 | trial step |    1.000000 |   -0.154283 |     -110.430562 | <-- min LBFGS
 +------------+-------------+-------------+-----------------+ <-- min LBFGS
  

--------------------------------------------------------------------------------
 LBFGS: improving iteration         2 with line minimization (lambda=  0.254481)
--------------------------------------------------------------------------------

                           -------------------------------
                                      Unit Cell
                           -------------------------------
        Real Lattice(A)              Reciprocal Lattice(1/A)
     1.9818390     0.0000000     0.0000000        3.170381324  -0.000000000   0.000000000
     0.0000000     3.1613421     0.0000000       -0.000000000   1.987505646   0.000000000
     0.0000000     0.0000000     3.0390931        0.000000000   0.000000000   2.067454042

                       Lattice parameters(A)       Cell Angles
                    a =      1.981839          alpha =   90.000000
                    b =      3.161342          beta  =   90.000000
                    c =      3.039093          gamma =   90.000000

                Current cell volume =            19.040742 A**3

                           -------------------------------
                                     Cell Contents
                           -------------------------------

            xxxxxxxxxxxxxxxxxxxxxxxxxxxxxxxxxxxxxxxxxxxxxxxxxxxxxxxxxxxxxxxxx
            x  Element         Atom        Fractional coordinates of atoms  x
            x                 Number           u          v          w      x
            x---------------------------------------------------------------x
            x  H                 1         0.000000   0.393322   0.447174   x
            x  H                 2         0.000000   0.106678   0.947174   x
            x  H                 3         0.000000   0.893322   0.052826   x
            x  H                 4         0.000000   0.606678   0.552826   x
            x  H                 5         0.500000   0.893322   0.447174   x
            x  H                 6         0.500000   0.606678   0.947174   x
            x  H                 7         0.500000   0.393322   0.052826   x
            x  H                 8         0.500000   0.106678   0.552826   x
            xxxxxxxxxxxxxxxxxxxxxxxxxxxxxxxxxxxxxxxxxxxxxxxxxxxxxxxxxxxxxxxxx


------------------------------------------------------------------------ <-- SCF
SCF loop      Energy                           Energy gain       Timer   <-- SCF
                                               per atom          (sec)   <-- SCF
------------------------------------------------------------------------ <-- SCF
Initial  -1.20900710E+002                                         86.40  <-- SCF
      1  -1.21191843E+002                    3.63917302E-002      87.75  <-- SCF
      2  -1.21193001E+002                    1.44683855E-004      89.52  <-- SCF
      3  -1.21170619E+002                   -2.79777745E-003      91.25  <-- SCF
      4  -1.21169721E+002                   -1.12167683E-004      92.97  <-- SCF
      5  -1.21169726E+002                    6.33137886E-007      94.67  <-- SCF
      6  -1.21169727E+002                    5.21891811E-008      96.40  <-- SCF
      7  -1.21169727E+002                    1.46736426E-010      97.84  <-- SCF
      8  -1.21169727E+002                    1.17610284E-011      99.09  <-- SCF
      9  -1.21169727E+002                    9.03300148E-013     100.35  <-- SCF
     10  -1.21169727E+002                   -2.47727800E-013     101.60  <-- SCF
------------------------------------------------------------------------ <-- SCF
 
Final energy =  -121.1697268643     eV
(energy not corrected for finite basis set)
 

 ******************************** Symmetrised Forces ********************************
 *                                                                                  *
 *                           Cartesian components (eV/A)                            *
 * -------------------------------------------------------------------------------- *
 *                         x                    y                    z              *
 *                                                                                  *
 * H               1      0.00000              0.02246              0.00270         *
 * H               2      0.00000             -0.02246              0.00270         *
 * H               3      0.00000              0.02246             -0.00270         *
 * H               4      0.00000             -0.02246             -0.00270         *
 * H               5      0.00000              0.02246              0.00270         *
 * H               6      0.00000             -0.02246              0.00270         *
 * H               7      0.00000              0.02246             -0.00270         *
 * H               8      0.00000             -0.02246             -0.00270         *
 *                                                                                  *
 ************************************************************************************

 *********** Symmetrised Stress Tensor ***********
 *                                               *
 *          Cartesian components (GPa)           *
 * --------------------------------------------- *
 *             x             y             z     *
 *                                               *
 *  x    -90.994832      0.000000      0.000000  *
 *  y      0.000000    -88.522788      0.000000  *
 *  z      0.000000      0.000000    -90.882835  *
 *                                               *
 *  Pressure:   90.1335                          *
 *                                               *
 *************************************************
  
 +------------+-------------+-------------+-----------------+ <-- min LBFGS
 |    Step    |   lambda    |   F.delta'  |    enthalpy     | <-- min LBFGS
 +------------+-------------+-------------+-----------------+ <-- min LBFGS
 |  previous  |    0.000000 |    0.052664 |     -110.467507 | <-- min LBFGS
 | trial step |    1.000000 |   -0.154283 |     -110.430562 | <-- min LBFGS
 |  line step |    0.254481 |    0.006237 |     -110.473860 | <-- min LBFGS
 +------------+-------------+-------------+-----------------+ <-- min LBFGS
  
 LBFGS: finished iteration     2 with enthalpy= -1.10473860E+002 eV
  
 +-----------+-----------------+-----------------+------------+-----+ <-- LBFGS
 | Parameter |      value      |    tolerance    |    units   | OK? | <-- LBFGS
 +-----------+-----------------+-----------------+------------+-----+ <-- LBFGS
 |  dE/ion   |   7.941671E-004 |   1.000000E-009 |         eV | No  | <-- LBFGS
 |  |F|max   |   2.262115E-002 |   1.000000E-005 |       eV/A | No  | <-- LBFGS
 |  |dR|max  |   5.865514E-003 |   1.000000E-005 |          A | No  | <-- LBFGS
 |   Smax    |   1.477212E+000 |   1.000000E-005 |        GPa | No  | <-- LBFGS
 +-----------+-----------------+-----------------+------------+-----+ <-- LBFGS
  

================================================================================
 Starting LBFGS iteration          3 ...
================================================================================
  
 +------------+-------------+-------------+-----------------+ <-- min LBFGS
 |    Step    |   lambda    |   F.delta'  |    enthalpy     | <-- min LBFGS
 +------------+-------------+-------------+-----------------+ <-- min LBFGS
 |  previous  |    0.000000 |    0.009004 |     -110.473860 | <-- min LBFGS
 +------------+-------------+-------------+-----------------+ <-- min LBFGS
  

--------------------------------------------------------------------------------
 LBFGS: starting iteration         3 with trial guess (lambda=  1.000000)
--------------------------------------------------------------------------------

                           -------------------------------
                                      Unit Cell
                           -------------------------------
        Real Lattice(A)              Reciprocal Lattice(1/A)
     1.9842792     0.0000000     0.0000000        3.166482422  -0.000000000   0.000000000
     0.0000000     3.1601623     0.0000000       -0.000000000   1.988247656   0.000000000
     0.0000000     0.0000000     3.0427147        0.000000000   0.000000000   2.064993251

                       Lattice parameters(A)       Cell Angles
                    a =      1.984279          alpha =   90.000000
                    b =      3.160162          beta  =   90.000000
                    c =      3.042715          gamma =   90.000000

                Current cell volume =            19.079782 A**3

                           -------------------------------
                                     Cell Contents
                           -------------------------------

            xxxxxxxxxxxxxxxxxxxxxxxxxxxxxxxxxxxxxxxxxxxxxxxxxxxxxxxxxxxxxxxxx
            x  Element         Atom        Fractional coordinates of atoms  x
            x                 Number           u          v          w      x
            x---------------------------------------------------------------x
            x  H                 1         0.000000   0.393616   0.447019   x
            x  H                 2         0.000000   0.106384   0.947019   x
            x  H                 3         0.000000   0.893616   0.052981   x
            x  H                 4         0.000000   0.606384   0.552981   x
            x  H                 5         0.500000   0.893616   0.447019   x
            x  H                 6         0.500000   0.606384   0.947019   x
            x  H                 7         0.500000   0.393616   0.052981   x
            x  H                 8         0.500000   0.106384   0.552981   x
            xxxxxxxxxxxxxxxxxxxxxxxxxxxxxxxxxxxxxxxxxxxxxxxxxxxxxxxxxxxxxxxxx


------------------------------------------------------------------------ <-- SCF
SCF loop      Energy                           Energy gain       Timer   <-- SCF
                                               per atom          (sec)   <-- SCF
------------------------------------------------------------------------ <-- SCF
Initial  -1.21191129E+002                                        103.15  <-- SCF
      1  -1.21192082E+002                    1.19158391E-004     104.48  <-- SCF
      2  -1.21192086E+002                    5.35507194E-007     106.17  <-- SCF
      3  -1.21192030E+002                   -6.98689253E-006     107.88  <-- SCF
      4  -1.21192028E+002                   -2.80719028E-007     109.59  <-- SCF
      5  -1.21192028E+002                    2.08762332E-009     111.40  <-- SCF
      6  -1.21192028E+002                    1.73835431E-010     112.67  <-- SCF
      7  -1.21192028E+002                    1.42292431E-012     113.92  <-- SCF
      8  -1.21192028E+002                    1.63137819E-013     115.17  <-- SCF
------------------------------------------------------------------------ <-- SCF
 
Final energy =  -121.1920280330     eV
(energy not corrected for finite basis set)
 

 ******************************** Symmetrised Forces ********************************
 *                                                                                  *
 *                           Cartesian components (eV/A)                            *
 * -------------------------------------------------------------------------------- *
 *                         x                    y                    z              *
 *                                                                                  *
 * H               1      0.00000              0.00029             -0.00860         *
 * H               2      0.00000             -0.00029             -0.00860         *
 * H               3     -0.00000              0.00029              0.00860         *
 * H               4     -0.00000             -0.00029              0.00860         *
 * H               5     -0.00000              0.00029             -0.00860         *
 * H               6      0.00000             -0.00029             -0.00860         *
 * H               7     -0.00000              0.00029              0.00860         *
 * H               8     -0.00000             -0.00029              0.00860         *
 *                                                                                  *
 ************************************************************************************

 *********** Symmetrised Stress Tensor ***********
 *                                               *
 *          Cartesian components (GPa)           *
 * --------------------------------------------- *
 *             x             y             z     *
 *                                               *
 *  x    -90.673113      0.000000      0.000000  *
 *  y      0.000000    -88.874691      0.000000  *
 *  z      0.000000      0.000000    -90.499422  *
 *                                               *
 *  Pressure:   90.0157                          *
 *                                               *
 *************************************************
  
 +------------+-------------+-------------+-----------------+ <-- min LBFGS
 |    Step    |   lambda    |   F.delta'  |    enthalpy     | <-- min LBFGS
 +------------+-------------+-------------+-----------------+ <-- min LBFGS
 |  previous  |    0.000000 |    0.009004 |     -110.473860 | <-- min LBFGS
 | trial step |    1.000000 |    0.004638 |     -110.474231 | <-- min LBFGS
 +------------+-------------+-------------+-----------------+ <-- min LBFGS
  

--------------------------------------------------------------------------------
 LBFGS: improving iteration         3 with line minimization (lambda=  2.062343)
--------------------------------------------------------------------------------

                           -------------------------------
                                      Unit Cell
                           -------------------------------
        Real Lattice(A)              Reciprocal Lattice(1/A)
     1.9868716     0.0000000     0.0000000        3.162350941  -0.000000000   0.000000000
     0.0000000     3.1589090     0.0000000       -0.000000000   1.989036532   0.000000000
     0.0000000     0.0000000     3.0465621        0.000000000   0.000000000   2.062385455

                       Lattice parameters(A)       Cell Angles
                    a =      1.986872          alpha =   90.000000
                    b =      3.158909          beta  =   90.000000
                    c =      3.046562          gamma =   90.000000

                Current cell volume =            19.121279 A**3

                           -------------------------------
                                     Cell Contents
                           -------------------------------

            xxxxxxxxxxxxxxxxxxxxxxxxxxxxxxxxxxxxxxxxxxxxxxxxxxxxxxxxxxxxxxxxx
            x  Element         Atom        Fractional coordinates of atoms  x
            x                 Number           u          v          w      x
            x---------------------------------------------------------------x
            x  H                 1         0.000000   0.393928   0.446854   x
            x  H                 2         0.000000   0.106072   0.946854   x
            x  H                 3         0.000000   0.893928   0.053146   x
            x  H                 4         0.000000   0.606072   0.553146   x
            x  H                 5         0.500000   0.893928   0.446854   x
            x  H                 6         0.500000   0.606072   0.946854   x
            x  H                 7         0.500000   0.393928   0.053146   x
            x  H                 8         0.500000   0.106072   0.553146   x
            xxxxxxxxxxxxxxxxxxxxxxxxxxxxxxxxxxxxxxxxxxxxxxxxxxxxxxxxxxxxxxxxx


------------------------------------------------------------------------ <-- SCF
SCF loop      Energy                           Energy gain       Timer   <-- SCF
                                               per atom          (sec)   <-- SCF
------------------------------------------------------------------------ <-- SCF
Initial  -1.21214461E+002                                        116.64  <-- SCF
      1  -1.21215539E+002                    1.34647230E-004     117.98  <-- SCF
      2  -1.21215543E+002                    5.96917728E-007     119.68  <-- SCF
      3  -1.21215480E+002                   -7.92417733E-006     121.43  <-- SCF
      4  -1.21215477E+002                   -3.16072299E-007     123.15  <-- SCF
      5  -1.21215477E+002                    2.40011079E-009     124.84  <-- SCF
      6  -1.21215477E+002                    2.00393664E-010     126.14  <-- SCF
      7  -1.21215477E+002                    1.33531326E-012     127.42  <-- SCF
      8  -1.21215477E+002                    3.05128144E-013     128.75  <-- SCF
------------------------------------------------------------------------ <-- SCF
 
Final energy =  -121.2154773749     eV
(energy not corrected for finite basis set)
 

 ******************************** Symmetrised Forces ********************************
 *                                                                                  *
 *                           Cartesian components (eV/A)                            *
 * -------------------------------------------------------------------------------- *
 *                         x                    y                    z              *
 *                                                                                  *
 * H               1     -0.00000             -0.02289             -0.02064         *
 * H               2      0.00000              0.02289             -0.02064         *
 * H               3      0.00000             -0.02289              0.02064         *
 * H               4     -0.00000              0.02289              0.02064         *
 * H               5      0.00000             -0.02289             -0.02064         *
 * H               6     -0.00000              0.02289             -0.02064         *
 * H               7      0.00000             -0.02289              0.02064         *
 * H               8     -0.00000              0.02289              0.02064         *
 *                                                                                  *
 ************************************************************************************

 *********** Symmetrised Stress Tensor ***********
 *                                               *
 *          Cartesian components (GPa)           *
 * --------------------------------------------- *
 *             x             y             z     *
 *                                               *
 *  x    -90.351951      0.000000      0.000000  *
 *  y      0.000000    -89.223537      0.000000  *
 *  z      0.000000      0.000000    -90.113980  *
 *                                               *
 *  Pressure:   89.8965                          *
 *                                               *
 *************************************************
  
 +------------+-------------+-------------+-----------------+ <-- min LBFGS
 |    Step    |   lambda    |   F.delta'  |    enthalpy     | <-- min LBFGS
 +------------+-------------+-------------+-----------------+ <-- min LBFGS
 |  previous  |    0.000000 |    0.009004 |     -110.473860 | <-- min LBFGS
 | trial step |    1.000000 |    0.004638 |     -110.474231 | <-- min LBFGS
 |  line step |    2.062343 |    0.000187 |     -110.474370 | <-- min LBFGS
 +------------+-------------+-------------+-----------------+ <-- min LBFGS
  
 LBFGS: finished iteration     3 with enthalpy= -1.10474370E+002 eV
  
 +-----------+-----------------+-----------------+------------+-----+ <-- LBFGS
 | Parameter |      value      |    tolerance    |    units   | OK? | <-- LBFGS
 +-----------+-----------------+-----------------+------------+-----+ <-- LBFGS
 |  dE/ion   |   6.372171E-005 |   1.000000E-009 |         eV | No  | <-- LBFGS
 |  |F|max   |   3.082169E-002 |   1.000000E-005 |       eV/A | No  | <-- LBFGS
 |  |dR|max  |   2.149535E-003 |   1.000000E-005 |          A | No  | <-- LBFGS
 |   Smax    |   7.764629E-001 |   1.000000E-005 |        GPa | No  | <-- LBFGS
 +-----------+-----------------+-----------------+------------+-----+ <-- LBFGS
  

================================================================================
 Starting LBFGS iteration          4 ...
================================================================================
  
 +------------+-------------+-------------+-----------------+ <-- min LBFGS
 |    Step    |   lambda    |   F.delta'  |    enthalpy     | <-- min LBFGS
 +------------+-------------+-------------+-----------------+ <-- min LBFGS
 |  previous  |    0.000000 |    0.006293 |     -110.474370 | <-- min LBFGS
 +------------+-------------+-------------+-----------------+ <-- min LBFGS
  

--------------------------------------------------------------------------------
 LBFGS: starting iteration         4 with trial guess (lambda=  1.000000)
--------------------------------------------------------------------------------

                           -------------------------------
                                      Unit Cell
                           -------------------------------
        Real Lattice(A)              Reciprocal Lattice(1/A)
     1.9884686     0.0000000     0.0000000        3.159811190  -0.000000000   0.000000000
     0.0000000     3.1545197     0.0000000       -0.000000000   1.991804128   0.000000000
     0.0000000     0.0000000     3.0482653        0.000000000   0.000000000   2.061233118

                       Lattice parameters(A)       Cell Angles
                    a =      1.988469          alpha =   90.000000
                    b =      3.154520          beta  =   90.000000
                    c =      3.048265          gamma =   90.000000

                Current cell volume =            19.120742 A**3

                           -------------------------------
                                     Cell Contents
                           -------------------------------

            xxxxxxxxxxxxxxxxxxxxxxxxxxxxxxxxxxxxxxxxxxxxxxxxxxxxxxxxxxxxxxxxx
            x  Element         Atom        Fractional coordinates of atoms  x
            x                 Number           u          v          w      x
            x---------------------------------------------------------------x
            x  H                 1         0.000000   0.393993   0.446362   x
            x  H                 2        -0.000000   0.106007   0.946362   x
            x  H                 3         0.000000   0.893993   0.053638   x
            x  H                 4         0.000000   0.606007   0.553638   x
            x  H                 5         0.500000   0.893993   0.446362   x
            x  H                 6         0.500000   0.606007   0.946362   x
            x  H                 7         0.500000   0.393993   0.053638   x
            x  H                 8         0.500000   0.106007   0.553638   x
            xxxxxxxxxxxxxxxxxxxxxxxxxxxxxxxxxxxxxxxxxxxxxxxxxxxxxxxxxxxxxxxxx


------------------------------------------------------------------------ <-- SCF
SCF loop      Energy                           Energy gain       Timer   <-- SCF
                                               per atom          (sec)   <-- SCF
------------------------------------------------------------------------ <-- SCF
Initial  -1.21214658E+002                                        130.28  <-- SCF
      1  -1.21215470E+002                    1.01510918E-004     131.58  <-- SCF
      2  -1.21215475E+002                    6.77785801E-007     133.35  <-- SCF
      3  -1.21215494E+002                    2.30940403E-006     135.02  <-- SCF
      4  -1.21215495E+002                    1.71964162E-007     136.72  <-- SCF
      5  -1.21215495E+002                    7.38540014E-010     138.40  <-- SCF
      6  -1.21215495E+002                    7.00102931E-011     139.67  <-- SCF
      7  -1.21215495E+002                    6.76719843E-013     140.92  <-- SCF
      8  -1.21215495E+002                   -3.26275639E-013     142.18  <-- SCF
------------------------------------------------------------------------ <-- SCF
 
Final energy =  -121.2154951881     eV
(energy not corrected for finite basis set)
 

 ******************************** Symmetrised Forces ********************************
 *                                                                                  *
 *                           Cartesian components (eV/A)                            *
 * -------------------------------------------------------------------------------- *
 *                         x                    y                    z              *
 *                                                                                  *
 * H               1      0.00000             -0.01260             -0.01446         *
 * H               2      0.00000              0.01260             -0.01446         *
 * H               3      0.00000             -0.01260              0.01446         *
 * H               4      0.00000              0.01260              0.01446         *
 * H               5      0.00000             -0.01260             -0.01446         *
 * H               6     -0.00000              0.01260             -0.01446         *
 * H               7      0.00000             -0.01260              0.01446         *
 * H               8      0.00000              0.01260              0.01446         *
 *                                                                                  *
 ************************************************************************************

 *********** Symmetrised Stress Tensor ***********
 *                                               *
 *          Cartesian components (GPa)           *
 * --------------------------------------------- *
 *             x             y             z     *
 *                                               *
 *  x    -90.322867     -0.000000      0.000000  *
 *  y     -0.000000    -89.490761      0.000000  *
 *  z      0.000000      0.000000    -89.842362  *
 *                                               *
 *  Pressure:   89.8853                          *
 *                                               *
 *************************************************
  
 +------------+-------------+-------------+-----------------+ <-- min LBFGS
 |    Step    |   lambda    |   F.delta'  |    enthalpy     | <-- min LBFGS
 +------------+-------------+-------------+-----------------+ <-- min LBFGS
 |  previous  |    0.000000 |    0.006293 |     -110.474370 | <-- min LBFGS
 | trial step |    1.000000 |    0.004269 |     -110.474690 | <-- min LBFGS
 +------------+-------------+-------------+-----------------+ <-- min LBFGS
  

--------------------------------------------------------------------------------
 LBFGS: improving iteration         4 with line minimization (lambda=  3.109064)
--------------------------------------------------------------------------------

                           -------------------------------
                                      Unit Cell
                           -------------------------------
        Real Lattice(A)              Reciprocal Lattice(1/A)
     1.9918367     0.0000000     0.0000000        3.154468048  -0.000000000   0.000000000
     0.0000000     3.1452624     0.0000000       -0.000000000   1.997666489   0.000000000
     0.0000000     0.0000000     3.0518574        0.000000000   0.000000000   2.058806984

                       Lattice parameters(A)       Cell Angles
                    a =      1.991837          alpha =   90.000000
                    b =      3.145262          beta  =   90.000000
                    c =      3.051857          gamma =   90.000000

                Current cell volume =            19.119426 A**3

                           -------------------------------
                                     Cell Contents
                           -------------------------------

            xxxxxxxxxxxxxxxxxxxxxxxxxxxxxxxxxxxxxxxxxxxxxxxxxxxxxxxxxxxxxxxxx
            x  Element         Atom        Fractional coordinates of atoms  x
            x                 Number           u          v          w      x
            x---------------------------------------------------------------x
            x  H                 1         0.000000   0.394128   0.445322   x
            x  H                 2        -0.000000   0.105872   0.945322   x
            x  H                 3         0.000000   0.894128   0.054678   x
            x  H                 4         0.000000   0.605872   0.554678   x
            x  H                 5         0.500000   0.894128   0.445322   x
            x  H                 6         0.500000   0.605872   0.945322   x
            x  H                 7         0.500000   0.394128   0.054678   x
            x  H                 8         0.500000   0.105872   0.554678   x
            xxxxxxxxxxxxxxxxxxxxxxxxxxxxxxxxxxxxxxxxxxxxxxxxxxxxxxxxxxxxxxxxx


------------------------------------------------------------------------ <-- SCF
SCF loop      Energy                           Energy gain       Timer   <-- SCF
                                               per atom          (sec)   <-- SCF
------------------------------------------------------------------------ <-- SCF
Initial  -1.21211294E+002                                        143.66  <-- SCF
      1  -1.21214908E+002                    4.51775842E-004     144.98  <-- SCF
      2  -1.21214935E+002                    3.43856698E-006     146.78  <-- SCF
      3  -1.21215017E+002                    1.01469465E-005     148.53  <-- SCF
      4  -1.21215023E+002                    7.57475121E-007     150.23  <-- SCF
      5  -1.21215023E+002                    3.21982093E-009     151.94  <-- SCF
      6  -1.21215023E+002                    3.11608340E-010     153.45  <-- SCF
      7  -1.21215023E+002                    1.41990324E-012     154.68  <-- SCF
      8  -1.21215023E+002                   -2.32622446E-013     155.91  <-- SCF
------------------------------------------------------------------------ <-- SCF
 
Final energy =  -121.2150227549     eV
(energy not corrected for finite basis set)
 

 ******************************** Symmetrised Forces ********************************
 *                                                                                  *
 *                           Cartesian components (eV/A)                            *
 * -------------------------------------------------------------------------------- *
 *                         x                    y                    z              *
 *                                                                                  *
 * H               1     -0.00000              0.01073             -0.00022         *
 * H               2      0.00000             -0.01073             -0.00022         *
 * H               3     -0.00000              0.01073              0.00022         *
 * H               4      0.00000             -0.01073              0.00022         *
 * H               5     -0.00000              0.01073             -0.00022         *
 * H               6      0.00000             -0.01073             -0.00022         *
 * H               7     -0.00000              0.01073              0.00022         *
 * H               8      0.00000             -0.01073              0.00022         *
 *                                                                                  *
 ************************************************************************************

 *********** Symmetrised Stress Tensor ***********
 *                                               *
 *          Cartesian components (GPa)           *
 * --------------------------------------------- *
 *             x             y             z     *
 *                                               *
 *  x    -90.284301      0.000000      0.000000  *
 *  y      0.000000    -90.022714      0.000000  *
 *  z      0.000000      0.000000    -89.252114  *
 *                                               *
 *  Pressure:   89.8530                          *
 *                                               *
 *************************************************
  
 +------------+-------------+-------------+-----------------+ <-- min LBFGS
 |    Step    |   lambda    |   F.delta'  |    enthalpy     | <-- min LBFGS
 +------------+-------------+-------------+-----------------+ <-- min LBFGS
 |  previous  |    0.000000 |    0.006293 |     -110.474370 | <-- min LBFGS
 | trial step |    1.000000 |    0.004269 |     -110.474690 | <-- min LBFGS
 |  line step |    3.109064 |   -0.000105 |     -110.474956 | <-- min LBFGS
 +------------+-------------+-------------+-----------------+ <-- min LBFGS
  
 LBFGS: finished iteration     4 with enthalpy= -1.10474956E+002 eV
  
 +-----------+-----------------+-----------------+------------+-----+ <-- LBFGS
 | Parameter |      value      |    tolerance    |    units   | OK? | <-- LBFGS
 +-----------+-----------------+-----------------+------------+-----+ <-- LBFGS
 |  dE/ion   |   7.327854E-005 |   1.000000E-009 |         eV | No  | <-- LBFGS
 |  |F|max   |   1.072866E-002 |   1.000000E-005 |       eV/A | No  | <-- LBFGS
 |  |dR|max  |   4.718282E-003 |   1.000000E-005 |          A | No  | <-- LBFGS
 |   Smax    |   7.478859E-001 |   1.000000E-005 |        GPa | No  | <-- LBFGS
[...]
            xxxxxxxxxxxxxxxxxxxxxxxxxxxxxxxxxxxxxxxxxxxxxxxxxxxxxxxxxxxxxxxxx


------------------------------------------------------------------------ <-- SCF
SCF loop      Energy                           Energy gain       Timer   <-- SCF
                                               per atom          (sec)   <-- SCF
------------------------------------------------------------------------ <-- SCF
Initial  -1.21225642E+002                                        325.83  <-- SCF
      1  -1.21225642E+002                    7.22035904E-013     326.69  <-- SCF
      2  -1.21225642E+002                    2.41685658E-014     327.96  <-- SCF
      3  -1.21225642E+002                    1.41990324E-013     329.22  <-- SCF
      4  -1.21225642E+002                   -1.54074607E-013     330.45  <-- SCF
------------------------------------------------------------------------ <-- SCF
 
Final energy =  -121.2256417736     eV
(energy not corrected for finite basis set)
 

 ******************************** Symmetrised Forces ********************************
 *                                                                                  *
 *                           Cartesian components (eV/A)                            *
 * -------------------------------------------------------------------------------- *
 *                         x                    y                    z              *
 *                                                                                  *
 * H               1      0.00000             -0.00000             -0.00000         *
 * H               2     -0.00000              0.00000             -0.00000         *
 * H               3      0.00000             -0.00000              0.00000         *
 * H               4      0.00000              0.00000              0.00000         *
 * H               5      0.00000             -0.00000             -0.00000         *
 * H               6      0.00000              0.00000             -0.00000         *
 * H               7      0.00000             -0.00000              0.00000         *
 * H               8      0.00000              0.00000              0.00000         *
 *                                                                                  *
 ************************************************************************************

 *********** Symmetrised Stress Tensor ***********
 *                                               *
 *          Cartesian components (GPa)           *
 * --------------------------------------------- *
 *             x             y             z     *
 *                                               *
 *  x    -89.999990     -0.000000      0.000000  *
 *  y     -0.000000    -90.000014      0.000000  *
 *  z      0.000000      0.000000    -90.000000  *
 *                                               *
 *  Pressure:   90.0000                          *
 *                                               *
 *************************************************
  
 +------------+-------------+-------------+-----------------+ <-- min LBFGS
 |    Step    |   lambda    |   F.delta'  |    enthalpy     | <-- min LBFGS
 +------------+-------------+-------------+-----------------+ <-- min LBFGS
 |  previous  |    0.000000 |  2.963E-007 |     -110.475261 | <-- min LBFGS
 | trial step |    1.000000 | -2.614E-007 |     -110.475261 | <-- min LBFGS
 |  line step |    0.531290 |  7.295E-008 |     -110.475261 | <-- min LBFGS
 +------------+-------------+-------------+-----------------+ <-- min LBFGS
  
 LBFGS: finished iteration    14 with enthalpy= -1.10475261E+002 eV
  
 +-----------+-----------------+-----------------+------------+-----+ <-- LBFGS
 | Parameter |      value      |    tolerance    |    units   | OK? | <-- LBFGS
 +-----------+-----------------+-----------------+------------+-----+ <-- LBFGS
 |  dE/ion   |   3.021071E-015 |   1.000000E-009 |         eV | Yes | <-- LBFGS
 |  |F|max   |   6.325916E-007 |   1.000000E-005 |       eV/A | Yes | <-- LBFGS
 |  |dR|max  |   2.140637E-008 |   1.000000E-005 |          A | Yes | <-- LBFGS
 |   Smax    |   1.422362E-005 |   1.000000E-005 |        GPa | No  | <-- LBFGS
 +-----------+-----------------+-----------------+------------+-----+ <-- LBFGS
  

================================================================================
 Starting LBFGS iteration         15 ...
================================================================================
  
 +------------+-------------+-------------+-----------------+ <-- min LBFGS
 |    Step    |   lambda    |   F.delta'  |    enthalpy     | <-- min LBFGS
 +------------+-------------+-------------+-----------------+ <-- min LBFGS
 |  previous  |    0.000000 |  6.887E-008 |     -110.475261 | <-- min LBFGS
 +------------+-------------+-------------+-----------------+ <-- min LBFGS
  

--------------------------------------------------------------------------------
 LBFGS: starting iteration        15 with trial guess (lambda=  1.000000)
--------------------------------------------------------------------------------

                           -------------------------------
                                      Unit Cell
                           -------------------------------
        Real Lattice(A)              Reciprocal Lattice(1/A)
     2.0002100     0.0000000     0.0000000        3.141262898  -0.000000000   0.000000000
     0.0000000     3.1416199     0.0000000       -0.000000000   1.999982639   0.000000000
     0.0000000     0.0000000     3.0455275        0.000000000   0.000000000   2.063086078

                       Lattice parameters(A)       Cell Angles
                    a =      2.000210          alpha =   90.000000
                    b =      3.141620          beta  =   90.000000
                    c =      3.045527          gamma =   90.000000

                Current cell volume =            19.137788 A**3

                           -------------------------------
                                     Cell Contents
                           -------------------------------

            xxxxxxxxxxxxxxxxxxxxxxxxxxxxxxxxxxxxxxxxxxxxxxxxxxxxxxxxxxxxxxxxx
            x  Element         Atom        Fractional coordinates of atoms  x
            x                 Number           u          v          w      x
            x---------------------------------------------------------------x
            x  H                 1        -0.000000   0.395311   0.443076   x
            x  H                 2         0.000000   0.104689   0.943076   x
            x  H                 3        -0.000000   0.895311   0.056924   x
            x  H                 4        -0.000000   0.604689   0.556924   x
            x  H                 5         0.500000   0.895311   0.443076   x
            x  H                 6         0.500000   0.604689   0.943076   x
            x  H                 7         0.500000   0.395311   0.056924   x
            x  H                 8         0.500000   0.104689   0.556924   x
            xxxxxxxxxxxxxxxxxxxxxxxxxxxxxxxxxxxxxxxxxxxxxxxxxxxxxxxxxxxxxxxxx


------------------------------------------------------------------------ <-- SCF
SCF loop      Energy                           Energy gain       Timer   <-- SCF
                                               per atom          (sec)   <-- SCF
------------------------------------------------------------------------ <-- SCF
Initial  -1.21225642E+002                                        331.96  <-- SCF
      1  -1.21225642E+002                    9.24447643E-013     332.83  <-- SCF
      2  -1.21225642E+002                    2.41685658E-014     334.06  <-- SCF
      3  -1.21225642E+002                   -2.14496022E-013     335.30  <-- SCF
      4  -1.21225642E+002                    1.69179961E-013     336.60  <-- SCF
------------------------------------------------------------------------ <-- SCF
 
Final energy =  -121.2256416573     eV
(energy not corrected for finite basis set)
 

 ******************************** Symmetrised Forces ********************************
 *                                                                                  *
 *                           Cartesian components (eV/A)                            *
 * -------------------------------------------------------------------------------- *
 *                         x                    y                    z              *
 *                                                                                  *
 * H               1      0.00000              0.00000              0.00000         *
 * H               2     -0.00000             -0.00000              0.00000         *
 * H               3      0.00000              0.00000             -0.00000         *
 * H               4      0.00000             -0.00000             -0.00000         *
 * H               5      0.00000              0.00000              0.00000         *
 * H               6     -0.00000             -0.00000              0.00000         *
 * H               7      0.00000              0.00000             -0.00000         *
 * H               8      0.00000             -0.00000             -0.00000         *
 *                                                                                  *
 ************************************************************************************

 *********** Symmetrised Stress Tensor ***********
 *                                               *
 *          Cartesian components (GPa)           *
 * --------------------------------------------- *
 *             x             y             z     *
 *                                               *
 *  x    -90.000002      0.000000      0.000000  *
 *  y      0.000000    -89.999998      0.000000  *
 *  z      0.000000      0.000000    -89.999998  *
 *                                               *
 *  Pressure:   90.0000                          *
 *                                               *
 *************************************************
  
 +------------+-------------+-------------+-----------------+ <-- min LBFGS
 |    Step    |   lambda    |   F.delta'  |    enthalpy     | <-- min LBFGS
 +------------+-------------+-------------+-----------------+ <-- min LBFGS
 |  previous  |    0.000000 |  6.887E-008 |     -110.475261 | <-- min LBFGS
 | trial step |    1.000000 | -6.902E-009 |     -110.475261 | <-- min LBFGS
 +------------+-------------+-------------+-----------------+ <-- min LBFGS
  
 LBFGS: finished iteration    15 with enthalpy= -1.10475261E+002 eV
  
 +-----------+-----------------+-----------------+------------+-----+ <-- LBFGS
 | Parameter |      value      |    tolerance    |    units   | OK? | <-- LBFGS
 +-----------+-----------------+-----------------+------------+-----+ <-- LBFGS
 |  dE/ion   |   2.054328E-013 |   1.000000E-009 |         eV | Yes | <-- LBFGS
 |  |F|max   |   3.640771E-008 |   1.000000E-005 |       eV/A | Yes | <-- LBFGS
 |  |dR|max  |   1.075764E-007 |   1.000000E-005 |          A | Yes | <-- LBFGS
 |   Smax    |   2.032376E-006 |   1.000000E-005 |        GPa | Yes | <-- LBFGS
 +-----------+-----------------+-----------------+------------+-----+ <-- LBFGS
  
 LBFGS: Geometry optimization completed successfully.

================================================================================
 LBFGS: Final Configuration:
================================================================================

                           -------------------------------
                                      Unit Cell
                           -------------------------------
        Real Lattice(A)              Reciprocal Lattice(1/A)
     2.0002100     0.0000000     0.0000000        3.141262898  -0.000000000   0.000000000
     0.0000000     3.1416199     0.0000000       -0.000000000   1.999982639   0.000000000
     0.0000000     0.0000000     3.0455275        0.000000000   0.000000000   2.063086078

                       Lattice parameters(A)       Cell Angles
                    a =      2.000210          alpha =   90.000000
                    b =      3.141620          beta  =   90.000000
                    c =      3.045527          gamma =   90.000000

                Current cell volume =            19.137788 A**3

                           -------------------------------
                                     Cell Contents
                           -------------------------------

            xxxxxxxxxxxxxxxxxxxxxxxxxxxxxxxxxxxxxxxxxxxxxxxxxxxxxxxxxxxxxxxxx
            x  Element         Atom        Fractional coordinates of atoms  x
            x                 Number           u          v          w      x
            x---------------------------------------------------------------x
            x  H                 1        -0.000000   0.395311   0.443076   x
            x  H                 2         0.000000   0.104689   0.943076   x
            x  H                 3        -0.000000   0.895311   0.056924   x
            x  H                 4        -0.000000   0.604689   0.556924   x
            x  H                 5         0.500000   0.895311   0.443076   x
            x  H                 6         0.500000   0.604689   0.943076   x
            x  H                 7         0.500000   0.395311   0.056924   x
            x  H                 8         0.500000   0.104689   0.556924   x
            xxxxxxxxxxxxxxxxxxxxxxxxxxxxxxxxxxxxxxxxxxxxxxxxxxxxxxxxxxxxxxxxx


 LBFGS: Final Enthalpy     = -1.10475261E+002 eV
 LBFGS: Final <frequency>  =    2143.53684 cm-1
 LBFGS: Final bulk modulus =     219.53159 GPa

 ******************************** Symmetrised Forces ********************************
 *                                                                                  *
 *                           Cartesian components (eV/A)                            *
 * -------------------------------------------------------------------------------- *
 *                         x                    y                    z              *
 *                                                                                  *
 * H               1      0.00000              0.00000              0.00000         *
 * H               2     -0.00000             -0.00000              0.00000         *
 * H               3      0.00000              0.00000             -0.00000         *
 * H               4      0.00000             -0.00000             -0.00000         *
 * H               5      0.00000              0.00000              0.00000         *
 * H               6     -0.00000             -0.00000              0.00000         *
 * H               7      0.00000              0.00000             -0.00000         *
 * H               8      0.00000             -0.00000             -0.00000         *
 *                                                                                  *
 ************************************************************************************

 *********** Symmetrised Stress Tensor ***********
 *                                               *
 *          Cartesian components (GPa)           *
 * --------------------------------------------- *
 *             x             y             z     *
 *                                               *
 *  x    -90.000002      0.000000      0.000000  *
 *  y      0.000000    -89.999998      0.000000  *
 *  z      0.000000      0.000000    -89.999998  *
 *                                               *
 *  Pressure:   90.0000                          *
 *                                               *
 *************************************************

 Pseudo atomic calculation performed for H 1s1

 Converged in 24 iterations to a total energy of -12.4855 eV

Charge spilling parameter for spin component 1 = 0.55%

            Orbital Populations       
     Ion    Atom   Orbital             Charge
  -------------------------------------------
      H     1      S                    0.997
      H     2      S                    1.003
      H     3      S                    1.003
      H     4      S                    0.997
      H     5      S                    0.997
      H     6      S                    1.003
      H     7      S                    1.003
      H     8      S                    0.997
  -------------------------------------------
                           Total:       8.000
  -------------------------------------------

     Atomic Populations (Mulliken)
     -----------------------------
Species          Ion     s      p      d      f     Total  Charge (e)
=====================================================================
  H               1     1.00   0.00   0.00   0.00   1.00     0.00
  H               2     1.00   0.00   0.00   0.00   1.00     0.00
  H               3     1.00   0.00   0.00   0.00   1.00     0.00
  H               4     1.00   0.00   0.00   0.00   1.00     0.00
  H               5     1.00   0.00   0.00   0.00   1.00     0.00
  H               6     1.00   0.00   0.00   0.00   1.00     0.00
  H               7     1.00   0.00   0.00   0.00   1.00     0.00
  H               8     1.00   0.00   0.00   0.00   1.00     0.00
=====================================================================

                 Bond                   Population      Length (A)
======================================================================
               H 2 -- H 3                    1.29        0.74358
               H 5 -- H 8                    1.29        0.74358
               H 6 -- H 7                    1.29        0.74358
               H 1 -- H 4                    1.29        0.74358
               H 3 -- H 6                   -0.10        1.39787
               H 4 -- H 5                   -0.10        1.39787
               H 2 -- H 7                   -0.10        1.39787
               H 1 -- H 8                   -0.10        1.39787
               H 3 -- H 5                   -0.24        1.54379
               H 1 -- H 7                   -0.24        1.54379
               H 4 -- H 6                   -0.24        1.54379
               H 2 -- H 8                   -0.24        1.54379
               H 5 -- H 6                   -0.04        1.77550
               H 1 -- H 2                   -0.04        1.77550
               H 3 -- H 4                   -0.04        1.77550
               H 7 -- H 8                   -0.04        1.77550
               H 4 -- H 8                   -0.49        1.86216
               H 2 -- H 6                   -0.49        1.86216
               H 3 -- H 7                   -0.49        1.86216
               H 1 -- H 5                   -0.49        1.86216
               H 2 -- H 5                   -0.41        1.93693
               H 1 -- H 6                   -0.41        1.93693
               H 3 -- H 8                   -0.41        1.93693
               H 4 -- H 7                   -0.41        1.93693
               H 6 -- H 8                   -0.16        1.96227
               H 2 -- H 4                   -0.16        1.96227
               H 5 -- H 7                   -0.16        1.96227
               H 1 -- H 3                   -0.16        1.96227
======================================================================


Writing analysis data to Cmca4.castep_bin

Writing model to Cmca4.check
 
 A BibTeX formatted list of references used in this run has been written to 
 Cmca4.bib
 
Initialisation time =      4.19 s
Calculation time    =    335.29 s
Finalisation time   =      5.19 s
Total time          =    344.67 s
Peak Memory Use     = 554380 kB
  
Overall parallel efficiency rating: Excellent (94%)                             
  
Data was distributed by:-
k-point (32-way); efficiency rating: Excellent (95%)                            
  
Parallel notes:
1) Calculation only took 339.5 s, so efficiency estimates may be inaccurate.    
