 +-------------------------------------------------+
 |                                                 |
 |      CCC   AA    SSS  TTTTT  EEEEE  PPPP        |
 |     C     A  A  S       T    E      P   P       |
 |     C     AAAA   SS     T    EEE    PPPP        |
 |     C     A  A     S    T    E      P           |
 |      CCC  A  A  SSS     T    EEEEE  P           |
 |                                                 |
 +-------------------------------------------------+
 |                                                 |
 | Welcome to Academic Release CASTEP version 18.1 |          
 | Ab Initio Total Energy Program                  |
 |                                                 |
 | Authors:                                        |
 | M. Segall, M. Probert, C. Pickard, P. Hasnip,   |
 | S. Clark, K. Refson, J. R. Yates, M. Payne      |
 |                                                 |
 | Contributors:                                   |
 | P. Lindan, P. Haynes, J. White, V. Milman,      |
 | N. Govind, M. Gibson, P. Tulip, V. Cocula,      |
 | B. Montanari, D. Quigley, M. Glover,            |
 | L. Bernasconi, A. Perlov, M. Plummer,           |
 | E. McNellis, J. Meyer, J. Gale, D. Jochym       |
 | J. Aarons, B. Walker, R. Gillen, D. Jones       |
 | T. Green, I. J. Bush, C. J. Armstrong,          |
 | E. J. Higgins, E. L. Brown, M. S. McFly,        |
 | J. Wilkins, B-C. Shih, P. J. P. Byrne           |
 |                                                 |
 | Copyright (c) 2000 - 2017                       |
 |                                                 |
 |     Distributed under the terms of an           |
 |     Agreement between the United Kingdom        |
 |     Car-Parrinello (UKCP) Consortium,           |
 |     Daresbury Laboratory and Accelrys, Inc.     |
 |                                                 |
 | Please cite                                     |
 |                                                 |
 |     "First principles methods using CASTEP"     |
 |                                                 |
 |         Zeitschrift fuer Kristallographie       |
 |           220(5-6) pp. 567-570 (2005)           |
 |                                                 |
 | S. J. Clark, M. D. Segall, C. J. Pickard,       |
 | P. J. Hasnip, M. J. Probert, K. Refson,         |
 | M. C. Payne                                     |
 |                                                 |
 |       in all publications arising from          |
 |              your use of CASTEP                 |
 |                                                 |
 +-------------------------------------------------+


 Compiled for linux_x86_64_gfortran4.8 on Thu, 19 Jul 2018 15:42:32 +0100
 from code version 70483bd0ad64+  Sun, 10 Dec 2017 12:18:29 +0000
 Compiler: GNU Fortran 4.8.5; Optimisation: fast
 MATHLIBS: Intel MKL(2018.0.0) (LAPACK version 3.7.0)
 FFT Lib : mkl
 Fundamental constants values: CODATA 2014

 Run started: Thu, 27 Aug 2020 11:51:30 +0100

 Atomic calculation performed for H: 1s1

 Converged in 41 iterations to an ae energy of -12.488 eV

   ============================================================                
   | Pseudopotential Report - Date of generation 27-08-2020   |                
   ------------------------------------------------------------                
   | Element: H Ionic charge:  1.00 Level of theory: PBE      |                
   | Atomic Solver: Koelling-Harmon                           |                
   |                                                          |                
   |               Reference Electronic Structure             |                
   |         Orbital         Occupation         Energy        |                
   |            1s              1.000           -0.239        |                
   |                                                          |                
   |                 Pseudopotential Definition               |                
   |        Beta     l      e      Rc     scheme   norm       |                
   |         loc     0   -0.239   0.702     qc      1         |                
   |                                                          |                
   | No charge augmentation                                   |                
   | No partial core correction                               |                
   ------------------------------------------------------------                
   | "0|0.7|2|6|8|10L(qc=10)"                                 |                
   ------------------------------------------------------------                
   |      Author: Chris J. Pickard, Cambridge University      |                
   ============================================================                

 Pseudo atomic calculation performed for H 1s1

 Converged in 24 iterations to a total energy of -12.4855 eV

 Calculation parallelised over 32 processes.
 Data is distributed by k-point(32-way)

 ************************************ Title ************************************
 

 ***************************** General Parameters ******************************
  
 output verbosity                               : normal  (1)
 write checkpoint data to                       : Cmca4.check
 type of calculation                            : geometry optimization
 stress calculation                             : on
 density difference calculation                 : off
 electron localisation func (ELF) calculation   : off
 Hirshfeld analysis                             : off
 unlimited duration calculation
 timing information                             : on
 memory usage estimate                          : on
 write extra output files                       : on
 write final potential to formatted file        : off
 write final density to formatted file          : off
 write structure in CELL formatted file         : on
 write BibTeX reference list                    : on
 write OTFG pseudopotential files               : on
 write electrostatic potential file             : on
 write bands file                               : on
 checkpoint writing                             : both castep_bin and check files
  
 output         length unit                     : A
 output           mass unit                     : amu
 output           time unit                     : ps
 output         charge unit                     : e
 output           spin unit                     : hbar/2
 output         energy unit                     : eV
 output          force unit                     : eV/A
 output       velocity unit                     : A/ps
 output       pressure unit                     : GPa
 output     inv_length unit                     : 1/A
 output      frequency unit                     : cm-1
 output force constant unit                     : eV/A**2
 output         volume unit                     : A**3
 output   IR intensity unit                     : (D/A)**2/amu
 output         dipole unit                     : D
 output         efield unit                     : eV/A/e
 output        entropy unit                     : J/mol/K
  
 wavefunctions paging                           : none
 random number generator seed                   : randomised (115132202)
 data distribution                              : optimal for this architecture
 optimization strategy                          : maximize speed(+++)

 *********************** Exchange-Correlation Parameters ***********************
  
 using functional                               : Perdew Burke Ernzerhof
 relativistic treatment                         : Koelling-Harmon
 DFT+D: Semi-empirical dispersion correction    : off

 ************************* Pseudopotential Parameters **************************
  
 pseudopotential representation                 : reciprocal space
 <beta|phi> representation                      : reciprocal space
 spin-orbit coupling                            : off

 **************************** Basis Set Parameters *****************************
  
 plane wave basis set cut-off                   :  1600.0000   eV
 size of standard grid                          :     2.0000
 size of   fine   gmax                          :    40.9853   1/A
 finite basis set correction                    : automatic
 number of sample energies                      :          3
           sample  spacing                      :     5.0000   eV

 **************************** Electronic Parameters ****************************
  
 number of  electrons                           :  8.000    
 net charge of system                           :  0.000    
 treating system as non-spin-polarized
 number of bands                                :          4

 ********************* Electronic Minimization Parameters **********************
  
 Method: Treating system as non-metallic,
         and number of  SD  steps               :          1
         and number of  CG  steps               :          4
  
 total energy / atom convergence tol.           : 0.1000E-10   eV
 eigen-energy convergence tolerance             : 0.2000E-10   eV
 max force / atom convergence tol.              : ignored
 convergence tolerance window                   :          3   cycles
 max. number of SCF cycles                      :        100
 periodic dipole correction                     : NONE

 ************************** Density Mixing Parameters **************************
  
 density-mixing scheme                          : Broyden
 max. length of mixing history                  :         20
 charge density mixing amplitude                : 0.8000    
 cut-off energy for mixing                      :  1600.       eV

 *********************** Population Analysis Parameters ************************
  
 Population analysis with cutoff                :  3.000       A
 Population analysis output                     : summary and pdos components

 ********************** Geometry Optimization Parameters ***********************
  
 optimization method                            : LBFGS
 max. no. of LBFGS updates                      : unbounded
 variable cell method                           : fixed basis quality
 max. number of steps                           :        200
 estimated bulk modulus                         :  500.0       GPa
 estimated <frequency>                          :  1668.       cm-1
 geom line minimiser                            : on
 with line minimiser tolerance                  :     0.4000
 total energy convergence tolerance             : 0.1000E-08   eV/atom
        max ionic |force| tolerance             : 0.1000E-04   eV/A
 max ionic |displacement| tolerance             : 0.1000E-04   A
   max |stress component| tolerance             : 0.1000E-04   GPa
 convergence tolerance window                   :          2   steps
 backup results every                           :      14400   seconds
 write geom trajectory file                     : on

 *******************************************************************************
  

                           -------------------------------
                                      Unit Cell
                           -------------------------------
        Real Lattice(A)                      Reciprocal Lattice(1/A)
     2.0002100     0.0000000     0.0000000        3.141262898  -0.000000000   0.000000000
     0.0000000     3.1416199     0.0000000       -0.000000000   1.999982639   0.000000000
     0.0000000     0.0000000     3.0455275        0.000000000   0.000000000   2.063086078

                       Lattice parameters(A)       Cell Angles
                    a =      2.000210          alpha =   90.000000
                    b =      3.141620          beta  =   90.000000
                    c =      3.045527          gamma =   90.000000

                       Current cell volume =            19.137788       A**3
                                   density =             0.421340   AMU/A**3
                                           =             0.699652     g/cm^3

                           -------------------------------
                                     Cell Contents
                           -------------------------------
                         Total number of ions in cell =    8
                      Total number of species in cell =    1
                        Max number of any one species =    8

            xxxxxxxxxxxxxxxxxxxxxxxxxxxxxxxxxxxxxxxxxxxxxxxxxxxxxxxxxxxx
            x  Element    Atom        Fractional coordinates of atoms  x
            x            Number           u          v          w      x
            x----------------------------------------------------------x
            x  H            1        -0.000000   0.395311   0.443076   x 
            x  H            2         0.000000   0.104689   0.943076   x 
            x  H            3        -0.000000   0.895311   0.056924   x 
            x  H            4        -0.000000   0.604689   0.556924   x 
            x  H            5         0.500000   0.895311   0.443076   x 
            x  H            6         0.500000   0.604689   0.943076   x 
            x  H            7         0.500000   0.395311   0.056924   x 
            x  H            8         0.500000   0.104689   0.556924   x 
            xxxxxxxxxxxxxxxxxxxxxxxxxxxxxxxxxxxxxxxxxxxxxxxxxxxxxxxxxxxx


                         No user defined ionic velocities

                           -------------------------------
                                   Details of Species
                           -------------------------------

                               Mass of species in AMU
                                    H    1.0079400

                          Electric Quadrupole Moment (Barn)
                                    H    0.0028600 Isotope  2

                          Files used for pseudopotentials:
                                    H 0|0.7|2|6|8|10L(qc=10)

                           -------------------------------
                              k-Points For BZ Sampling
                           -------------------------------
                       MP grid size for SCF calculation is 18 18 18
                            with an offset of   0.000  0.000  0.000
                       Number of kpoints used =           729

                           -------------------------------
                               Symmetry and Constraints
                           -------------------------------

                      Cell is a supercell containing 2 primitive cells
                      Maximum deviation from symmetry = 0.366229E-14     ANG

                      Number of symmetry operations   =          16
                      Number of ionic constraints     =           3
                      Point group of crystal =     8: D2h, mmm, 2/m 2/m 2/m
                      Space group of crystal =    64: Cmce, -C 2bc 2

             Set iprint > 1 for details on symmetry rotations/translations

                         Centre of mass is constrained
             Set iprint > 1 for details of linear ionic constraints

                         Number of cell constraints= 3
                         Cell constraints are:  1 2 3 0 0 0

                         External pressure/stress (GPa)
                         80.00000   0.00000   0.00000
                                   80.00000   0.00000
                                             80.00000
  
+---------------- MEMORY AND SCRATCH DISK ESTIMATES PER PROCESS --------------+
|                                                     Memory          Disk    |
| Baseline code, static data and system overhead      479.0 MB         0.0 MB |
| BLAS internal memory storage                          0.0 MB         0.0 MB |
| Model and support data                               28.5 MB         0.0 MB |
| Electronic energy minimisation requirements          18.7 MB         0.0 MB |
| Force calculation requirements                        5.6 MB         0.0 MB |
| Stress calculation requirements                       7.0 MB         0.0 MB |
|                                               ----------------------------- |
| Approx. total storage required per process          526.2 MB         0.0 MB |
|                                                                             |
| Requirements will fluctuate during execution and may exceed these estimates |
+-----------------------------------------------------------------------------+
Calculating finite basis set correction with  3 cut-off energies.
Calculating total energy with cut-off of 1590.000 eV.
------------------------------------------------------------------------ <-- SCF
SCF loop      Energy                           Energy gain       Timer   <-- SCF
                                               per atom          (sec)   <-- SCF
------------------------------------------------------------------------ <-- SCF
Initial   1.99502543E+002                                          5.30  <-- SCF
      1  -1.01079786E+002                    3.75727911E+001       6.96  <-- SCF
      2  -1.21695290E+002                    2.57693793E+000       8.15  <-- SCF
      3  -1.21243453E+002                   -5.64795460E-002       9.86  <-- SCF
      4  -1.21225009E+002                   -2.30549224E-003      11.94  <-- SCF
      5  -1.21225556E+002                    6.83341146E-005      13.61  <-- SCF
      6  -1.21225610E+002                    6.78228499E-006      15.31  <-- SCF
      7  -1.21225610E+002                    1.42815107E-008      17.02  <-- SCF
      8  -1.21225610E+002                    5.40082856E-010      18.40  <-- SCF
      9  -1.21225610E+002                    1.93257895E-011      19.65  <-- SCF
     10  -1.21225610E+002                    1.05133261E-012      20.90  <-- SCF
     11  -1.21225610E+002                   -1.38969254E-013      22.35  <-- SCF
------------------------------------------------------------------------ <-- SCF
 
Final energy =  -121.2256103570     eV
(energy not corrected for finite basis set)
 
Calculating total energy with cut-off of 1595.000 eV.
------------------------------------------------------------------------ <-- SCF
SCF loop      Energy                           Energy gain       Timer   <-- SCF
                                               per atom          (sec)   <-- SCF
------------------------------------------------------------------------ <-- SCF
Initial  -1.21225610E+002                                         23.17  <-- SCF
      1  -1.21225627E+002                    2.03825522E-006      24.45  <-- SCF
      2  -1.21225627E+002                    2.05432810E-012      25.67  <-- SCF
      3  -1.21225627E+002                    5.84879293E-010      26.90  <-- SCF
      4  -1.21225627E+002                    3.73313710E-011      28.13  <-- SCF
      5  -1.21225627E+002                    1.35646076E-012      29.35  <-- SCF
      6  -1.21225627E+002                   -3.02107073E-015      30.56  <-- SCF
------------------------------------------------------------------------ <-- SCF
 
Final energy =  -121.2256266681     eV
(energy not corrected for finite basis set)
 
Calculating total energy with cut-off of 1600.000 eV.
------------------------------------------------------------------------ <-- SCF
SCF loop      Energy                           Energy gain       Timer   <-- SCF
                                               per atom          (sec)   <-- SCF
------------------------------------------------------------------------ <-- SCF
Initial  -1.21225627E+002                                         31.38  <-- SCF
      1  -1.21225642E+002                    1.87309087E-006      32.68  <-- SCF
      2  -1.21225642E+002                    2.61624725E-012      33.91  <-- SCF
      3  -1.21225642E+002                    5.27216116E-010      35.13  <-- SCF
      4  -1.21225642E+002                    3.32347991E-011      36.40  <-- SCF
      5  -1.21225642E+002                    1.46824037E-012      37.68  <-- SCF
      6  -1.21225642E+002                   -8.76110512E-014      38.91  <-- SCF
------------------------------------------------------------------------ <-- SCF
 
Final energy =  -121.2256416573     eV
(energy not corrected for finite basis set)
 
 For future reference: finite basis dEtot/dlog(Ecut) =      -0.005000eV
 Total energy corrected for finite basis set =    -121.225642 eV
 
+---------------- MEMORY AND SCRATCH DISK ESTIMATES PER PROCESS --------------+
|                                                     Memory          Disk    |
| Model and support data                               37.2 MB         0.0 MB |
| Electronic energy minimisation requirements          18.7 MB         0.0 MB |
| Geometry minimisation requirements                   24.5 MB         0.0 MB |
|                                               ----------------------------- |
| Approx. total storage required per process           80.5 MB         0.0 MB |
|                                                                             |
| Requirements will fluctuate during execution and may exceed these estimates |
+-----------------------------------------------------------------------------+
 

 ******************************** Symmetrised Forces ********************************
 *                                                                                  *
 *                           Cartesian components (eV/A)                            *
 * -------------------------------------------------------------------------------- *
 *                         x                    y                    z              *
 *                                                                                  *
 * H               1     -0.00000             -0.00000             -0.00000         *
 * H               2      0.00000              0.00000             -0.00000         *
 * H               3     -0.00000             -0.00000              0.00000         *
 * H               4     -0.00000              0.00000              0.00000         *
 * H               5     -0.00000             -0.00000             -0.00000         *
 * H               6      0.00000              0.00000             -0.00000         *
 * H               7      0.00000             -0.00000              0.00000         *
 * H               8      0.00000              0.00000              0.00000         *
 *                                                                                  *
 ************************************************************************************

 *********** Symmetrised Stress Tensor ***********
 *                                               *
 *          Cartesian components (GPa)           *
 * --------------------------------------------- *
 *             x             y             z     *
 *                                               *
 *  x    -89.997867     -0.000000      0.000000  *
 *  y     -0.000000    -89.997877      0.000000  *
 *  z      0.000000      0.000000    -89.997868  *
 *                                               *
 *  Pressure:   89.9979                          *
 *                                               *
 *************************************************
 LBFGS: finished iteration     0 with enthalpy= -1.11669747E+002 eV
  
 +-----------+-----------------+-----------------+------------+-----+ <-- LBFGS
 | Parameter |      value      |    tolerance    |    units   | OK? | <-- LBFGS
 +-----------+-----------------+-----------------+------------+-----+ <-- LBFGS
 |  dE/ion   |   0.000000E+000 |   1.000000E-009 |         eV | No  | <-- LBFGS
 |  |F|max   |   8.265375E-008 |   1.000000E-005 |       eV/A | Yes | <-- LBFGS
 |  |dR|max  |   0.000000E+000 |   1.000000E-005 |          A | No  | <-- LBFGS
 |   Smax    |   9.997877E+000 |   1.000000E-005 |        GPa | No  | <-- LBFGS
 +-----------+-----------------+-----------------+------------+-----+ <-- LBFGS
  

================================================================================
 Starting LBFGS iteration          1 ...
================================================================================
  
 +------------+-------------+-------------+-----------------+ <-- min LBFGS
 |    Step    |   lambda    |   F.delta'  |    enthalpy     | <-- min LBFGS
 +------------+-------------+-------------+-----------------+ <-- min LBFGS
 |  previous  |    0.000000 |    0.076015 |     -111.669747 | <-- min LBFGS
 +------------+-------------+-------------+-----------------+ <-- min LBFGS
  

--------------------------------------------------------------------------------
 LBFGS: starting iteration         1 with trial guess (lambda=  1.000000)
--------------------------------------------------------------------------------
 
+---------------- MEMORY AND SCRATCH DISK ESTIMATES PER PROCESS --------------+
|                                                     Memory          Disk    |
| Model and support data                               37.5 MB         0.0 MB |
| Electronic energy minimisation requirements          19.0 MB         0.0 MB |
| Geometry minimisation requirements                   24.9 MB         0.0 MB |
|                                               ----------------------------- |
| Approx. total storage required per process           81.4 MB         0.0 MB |
|                                                                             |
| Requirements will fluctuate during execution and may exceed these estimates |
+-----------------------------------------------------------------------------+
 

                           -------------------------------
                                      Unit Cell
                           -------------------------------
        Real Lattice(A)              Reciprocal Lattice(1/A)
     2.0135418     0.0000000     0.0000000        3.120464239  -0.000000000   0.000000000
     0.0000000     3.1625596     0.0000000       -0.000000000   1.986740515   0.000000000
     0.0000000     0.0000000     3.0658266        0.000000000   0.000000000   2.049426150

                       Lattice parameters(A)       Cell Angles
                    a =      2.013542          alpha =   90.000000
                    b =      3.162560          beta  =   90.000000
                    c =      3.065827          gamma =   90.000000

                Current cell volume =            19.523019 A**3

                           -------------------------------
                                     Cell Contents
                           -------------------------------

            xxxxxxxxxxxxxxxxxxxxxxxxxxxxxxxxxxxxxxxxxxxxxxxxxxxxxxxxxxxxxxxxx
            x  Element         Atom        Fractional coordinates of atoms  x
            x                 Number           u          v          w      x
            x---------------------------------------------------------------x
            x  H                 1         0.000000   0.395311   0.443076   x
            x  H                 2         0.000000   0.104689   0.943076   x
            x  H                 3        -0.000000   0.895311   0.056924   x
            x  H                 4         0.000000   0.604689   0.556924   x
            x  H                 5         0.500000   0.895311   0.443076   x
            x  H                 6         0.500000   0.604689   0.943076   x
            x  H                 7         0.500000   0.395311   0.056924   x
            x  H                 8         0.500000   0.104689   0.556924   x
            xxxxxxxxxxxxxxxxxxxxxxxxxxxxxxxxxxxxxxxxxxxxxxxxxxxxxxxxxxxxxxxxx


------------------------------------------------------------------------ <-- SCF
SCF loop      Energy                           Energy gain       Timer   <-- SCF
                                               per atom          (sec)   <-- SCF
------------------------------------------------------------------------ <-- SCF
Initial  -1.21432284E+002                                         40.53  <-- SCF
      1  -1.21435316E+002                    3.79004088E-004      41.90  <-- SCF
      2  -1.21435328E+002                    1.51644494E-006      43.64  <-- SCF
      3  -1.21435194E+002                   -1.67470810E-005      45.35  <-- SCF
      4  -1.21435190E+002                   -4.83660337E-007      47.08  <-- SCF
      5  -1.21435190E+002                    1.62352673E-008      48.77  <-- SCF
      6  -1.21435190E+002                    1.57155495E-009      50.51  <-- SCF
      7  -1.21435190E+002                    4.48326896E-012      51.77  <-- SCF
      8  -1.21435190E+002                    3.38359922E-013      53.00  <-- SCF
------------------------------------------------------------------------ <-- SCF
 
Final energy =  -121.4351903314     eV
(energy not corrected for finite basis set)
 

 ******************************** Symmetrised Forces ********************************
 *                                                                                  *
 *                           Cartesian components (eV/A)                            *
 * -------------------------------------------------------------------------------- *
 *                         x                    y                    z              *
 *                                                                                  *
 * H               1      0.00000              0.13416              0.07030         *
 * H               2     -0.00000             -0.13416              0.07030         *
 * H               3      0.00000              0.13416             -0.07030         *
 * H               4      0.00000             -0.13416             -0.07030         *
 * H               5      0.00000              0.13416              0.07030         *
 * H               6     -0.00000             -0.13416              0.07030         *
 * H               7     -0.00000              0.13416             -0.07030         *
 * H               8      0.00000             -0.13416             -0.07030         *
 *                                                                                  *
 ************************************************************************************

 *********** Symmetrised Stress Tensor ***********
 *                                               *
 *          Cartesian components (GPa)           *
 * --------------------------------------------- *
 *             x             y             z     *
 *                                               *
 *  x    -85.780392      0.000000      0.000000  *
 *  y      0.000000    -82.291786      0.000000  *
 *  z      0.000000      0.000000    -85.043141  *
 *                                               *
 *  Pressure:   84.3718                          *
 *                                               *
 *************************************************
  
 +------------+-------------+-------------+-----------------+ <-- min LBFGS
 |    Step    |   lambda    |   F.delta'  |    enthalpy     | <-- min LBFGS
 +------------+-------------+-------------+-----------------+ <-- min LBFGS
 |  previous  |    0.000000 |    0.076015 |     -111.669747 | <-- min LBFGS
 | trial step |    1.000000 |    0.033684 |     -111.686942 | <-- min LBFGS
 +------------+-------------+-------------+-----------------+ <-- min LBFGS
  

--------------------------------------------------------------------------------
 LBFGS: improving iteration         1 with line minimization (lambda=  1.795714)
--------------------------------------------------------------------------------
 
+---------------- MEMORY AND SCRATCH DISK ESTIMATES PER PROCESS --------------+
|                                                     Memory          Disk    |
| Model and support data                               38.6 MB         0.0 MB |
| Electronic energy minimisation requirements          19.8 MB         0.0 MB |
| Geometry minimisation requirements                   25.8 MB         0.0 MB |
|                                               ----------------------------- |
| Approx. total storage required per process           84.2 MB         0.0 MB |
|                                                                             |
| Requirements will fluctuate during execution and may exceed these estimates |
+-----------------------------------------------------------------------------+
 

                           -------------------------------
                                      Unit Cell
                           -------------------------------
        Real Lattice(A)              Reciprocal Lattice(1/A)
     2.0241502     0.0000000     0.0000000        3.104110199  -0.000000000   0.000000000
     0.0000000     3.1792216     0.0000000       -0.000000000   1.976328198   0.000000000
     0.0000000     0.0000000     3.0819790        0.000000000   0.000000000   2.038685313

                       Lattice parameters(A)       Cell Angles
                    a =      2.024150          alpha =   90.000000
                    b =      3.179222          beta  =   90.000000
                    c =      3.081979          gamma =   90.000000

                Current cell volume =            19.833219 A**3

                           -------------------------------
                                     Cell Contents
                           -------------------------------

            xxxxxxxxxxxxxxxxxxxxxxxxxxxxxxxxxxxxxxxxxxxxxxxxxxxxxxxxxxxxxxxxx
            x  Element         Atom        Fractional coordinates of atoms  x
            x                 Number           u          v          w      x
            x---------------------------------------------------------------x
            x  H                 1         0.000000   0.395311   0.443076   x
            x  H                 2         0.000000   0.104689   0.943076   x
            x  H                 3        -0.000000   0.895311   0.056924   x
            x  H                 4         0.000000   0.604689   0.556924   x
            x  H                 5         0.500000   0.895311   0.443076   x
            x  H                 6         0.500000   0.604689   0.943076   x
            x  H                 7         0.500000   0.395311   0.056924   x
            x  H                 8         0.500000   0.104689   0.556924   x
            xxxxxxxxxxxxxxxxxxxxxxxxxxxxxxxxxxxxxxxxxxxxxxxxxxxxxxxxxxxxxxxxx


------------------------------------------------------------------------ <-- SCF
SCF loop      Energy                           Energy gain       Timer   <-- SCF
                                               per atom          (sec)   <-- SCF
------------------------------------------------------------------------ <-- SCF
Initial  -1.21592540E+002                                         54.59  <-- SCF
      1  -1.21594449E+002                    2.38653918E-004      56.12  <-- SCF
      2  -1.21594457E+002                    9.56454244E-007      58.10  <-- SCF
      3  -1.21594372E+002                   -1.05380716E-005      60.08  <-- SCF
      4  -1.21594370E+002                   -3.04526186E-007      62.07  <-- SCF
      5  -1.21594370E+002                    1.05309027E-008      64.02  <-- SCF
      6  -1.21594370E+002                    1.02524265E-009      65.99  <-- SCF
      7  -1.21594370E+002                    2.83074327E-012      67.45  <-- SCF
      8  -1.21594370E+002                    2.59812083E-013      68.87  <-- SCF
------------------------------------------------------------------------ <-- SCF
 
Final energy =  -121.5943699379     eV
(energy not corrected for finite basis set)
 

 ******************************** Symmetrised Forces ********************************
 *                                                                                  *
 *                           Cartesian components (eV/A)                            *
 * -------------------------------------------------------------------------------- *
 *                         x                    y                    z              *
 *                                                                                  *
 * H               1      0.00000              0.23778              0.12471         *
 * H               2      0.00000             -0.23778              0.12471         *
 * H               3      0.00000              0.23778             -0.12471         *
 * H               4     -0.00000             -0.23778             -0.12471         *
 * H               5      0.00000              0.23778              0.12471         *
 * H               6      0.00000             -0.23778              0.12471         *
 * H               7      0.00000              0.23778             -0.12471         *
 * H               8     -0.00000             -0.23778             -0.12471         *
 *                                                                                  *
 ************************************************************************************

 *********** Symmetrised Stress Tensor ***********
 *                                               *
 *          Cartesian components (GPa)           *
 * --------------------------------------------- *
 *             x             y             z     *
 *                                               *
 *  x    -82.560197     -0.000000      0.000000  *
 *  y     -0.000000    -76.471874      0.000000  *
 *  z      0.000000      0.000000    -81.275664  *
 *                                               *
 *  Pressure:   80.1026                          *
 *                                               *
 *************************************************
  
 +------------+-------------+-------------+-----------------+ <-- min LBFGS
 |    Step    |   lambda    |   F.delta'  |    enthalpy     | <-- min LBFGS
 +------------+-------------+-------------+-----------------+ <-- min LBFGS
 |  previous  |    0.000000 |    0.076015 |     -111.669747 | <-- min LBFGS
 | trial step |    1.000000 |    0.033684 |     -111.686942 | <-- min LBFGS
 |  line step |    1.795714 |    0.000799 |     -111.691232 | <-- min LBFGS
 +------------+-------------+-------------+-----------------+ <-- min LBFGS
  
 LBFGS: finished iteration     1 with enthalpy= -1.11691232E+002 eV
  
 +-----------+-----------------+-----------------+------------+-----+ <-- LBFGS
 | Parameter |      value      |    tolerance    |    units   | OK? | <-- LBFGS
 +-----------+-----------------+-----------------+------------+-----+ <-- LBFGS
 |  dE/ion   |   2.685621E-003 |   1.000000E-009 |         eV | No  | <-- LBFGS
 |  |F|max   |   2.684974E-001 |   1.000000E-005 |       eV/A | No  | <-- LBFGS
 |  |dR|max  |   1.456779E-008 |   1.000000E-005 |          A | Yes | <-- LBFGS
 |   Smax    |   3.528126E+000 |   1.000000E-005 |        GPa | No  | <-- LBFGS
 +-----------+-----------------+-----------------+------------+-----+ <-- LBFGS
  

================================================================================
 Starting LBFGS iteration          2 ...
================================================================================
  
 +------------+-------------+-------------+-----------------+ <-- min LBFGS
 |    Step    |   lambda    |   F.delta'  |    enthalpy     | <-- min LBFGS
 +------------+-------------+-------------+-----------------+ <-- min LBFGS
 |  previous  |    0.000000 |    0.058076 |     -111.691232 | <-- min LBFGS
 +------------+-------------+-------------+-----------------+ <-- min LBFGS
  

--------------------------------------------------------------------------------
 LBFGS: starting iteration         2 with trial guess (lambda=  1.000000)
--------------------------------------------------------------------------------
 
+---------------- MEMORY AND SCRATCH DISK ESTIMATES PER PROCESS --------------+
|                                                     Memory          Disk    |
| Model and support data                               39.3 MB         0.0 MB |
| Electronic energy minimisation requirements          20.5 MB         0.0 MB |
| Geometry minimisation requirements                   26.8 MB         0.0 MB |
|                                               ----------------------------- |
| Approx. total storage required per process           86.5 MB         0.0 MB |
|                                                                             |
| Requirements will fluctuate during execution and may exceed these estimates |
+-----------------------------------------------------------------------------+
 

                           -------------------------------
                                      Unit Cell
                           -------------------------------
        Real Lattice(A)              Reciprocal Lattice(1/A)
     2.0614411     0.0000000     0.0000000        3.047957695  -0.000000000   0.000000000
     0.0000000     3.2245952     0.0000000       -0.000000000   1.948519062   0.000000000
     0.0000000     0.0000000     3.1360591        0.000000000   0.000000000   2.003529013

                       Lattice parameters(A)       Cell Angles
                    a =      2.061441          alpha =   90.000000
                    b =      3.224595          beta  =   90.000000
                    c =      3.136059          gamma =   90.000000

                Current cell volume =            20.846367 A**3

                           -------------------------------
                                     Cell Contents
                           -------------------------------

            xxxxxxxxxxxxxxxxxxxxxxxxxxxxxxxxxxxxxxxxxxxxxxxxxxxxxxxxxxxxxxxxx
            x  Element         Atom        Fractional coordinates of atoms  x
            x                 Number           u          v          w      x
            x---------------------------------------------------------------x
            x  H                 1        -0.000000   0.402818   0.447138   x
            x  H                 2        -0.000000   0.097182   0.947138   x
            x  H                 3        -0.000000   0.902818   0.052862   x
            x  H                 4         0.000000   0.597182   0.552862   x
            x  H                 5         0.500000   0.902818   0.447138   x
            x  H                 6         0.500000   0.597182   0.947138   x
            x  H                 7         0.500000   0.402818   0.052862   x
            x  H                 8         0.500000   0.097182   0.552862   x
            xxxxxxxxxxxxxxxxxxxxxxxxxxxxxxxxxxxxxxxxxxxxxxxxxxxxxxxxxxxxxxxxx


------------------------------------------------------------------------ <-- SCF
SCF loop      Energy                           Energy gain       Timer   <-- SCF
                                               per atom          (sec)   <-- SCF
------------------------------------------------------------------------ <-- SCF
Initial  -1.21398645E+002                                         70.62  <-- SCF
      1  -1.22095138E+002                    8.70615922E-002      72.15  <-- SCF
      2  -1.22097765E+002                    3.28369515E-004      74.12  <-- SCF
      3  -1.22041467E+002                   -7.03731214E-003      76.09  <-- SCF
      4  -1.22039310E+002                   -2.69521767E-004      78.06  <-- SCF
      5  -1.22039333E+002                    2.76151396E-006      80.03  <-- SCF
      6  -1.22039335E+002                    2.65755601E-007      82.06  <-- SCF
      7  -1.22039335E+002                    9.60661218E-010      84.04  <-- SCF
      8  -1.22039335E+002                    5.71616793E-011      85.48  <-- SCF
      9  -1.22039335E+002                    1.85191636E-012      86.95  <-- SCF
     10  -1.22039335E+002                    1.26884971E-013      88.38  <-- SCF
------------------------------------------------------------------------ <-- SCF
 
Final energy =  -122.0393347024     eV
(energy not corrected for finite basis set)
 

 ******************************** Symmetrised Forces ********************************
 *                                                                                  *
 *                           Cartesian components (eV/A)                            *
 * -------------------------------------------------------------------------------- *
 *                         x                    y                    z              *
 *                                                                                  *
 * H               1     -0.00000             -0.81268             -0.47437         *
 * H               2     -0.00000              0.81268             -0.47437         *
 * H               3      0.00000             -0.81268              0.47437         *
 * H               4     -0.00000              0.81268              0.47437         *
 * H               5     -0.00000             -0.81268             -0.47437         *
 * H               6     -0.00000              0.81268             -0.47437         *
 * H               7      0.00000             -0.81268              0.47437         *
 * H               8     -0.00000              0.81268              0.47437         *
 *                                                                                  *
 ************************************************************************************

 *********** Symmetrised Stress Tensor ***********
 *                                               *
 *          Cartesian components (GPa)           *
 * --------------------------------------------- *
 *             x             y             z     *
 *                                               *
 *  x    -76.634905      0.000000      0.000000  *
 *  y      0.000000    -86.366159      0.000000  *
 *  z      0.000000      0.000000    -80.691623  *
 *                                               *
 *  Pressure:   81.2309                          *
 *                                               *
 *************************************************
  
 +------------+-------------+-------------+-----------------+ <-- min LBFGS
 |    Step    |   lambda    |   F.delta'  |    enthalpy     | <-- min LBFGS
 +------------+-------------+-------------+-----------------+ <-- min LBFGS
 |  previous  |    0.000000 |    0.058076 |     -111.691232 | <-- min LBFGS
 | trial step |    1.000000 |   -0.193156 |     -111.630312 | <-- min LBFGS
 +------------+-------------+-------------+-----------------+ <-- min LBFGS
  

--------------------------------------------------------------------------------
 LBFGS: improving iteration         2 with line minimization (lambda=  0.231166)
--------------------------------------------------------------------------------

                           -------------------------------
                                      Unit Cell
                           -------------------------------
        Real Lattice(A)              Reciprocal Lattice(1/A)
     2.0327706     0.0000000     0.0000000        3.090946559  -0.000000000   0.000000000
     0.0000000     3.1897105     0.0000000       -0.000000000   1.969829359   0.000000000
     0.0000000     0.0000000     3.0944805        0.000000000   0.000000000   2.030449168

                       Lattice parameters(A)       Cell Angles
                    a =      2.032771          alpha =   90.000000
                    b =      3.189710          beta  =   90.000000
                    c =      3.094480          gamma =   90.000000

                Current cell volume =            20.064456 A**3

                           -------------------------------
                                     Cell Contents
                           -------------------------------

            xxxxxxxxxxxxxxxxxxxxxxxxxxxxxxxxxxxxxxxxxxxxxxxxxxxxxxxxxxxxxxxxx
            x  Element         Atom        Fractional coordinates of atoms  x
            x                 Number           u          v          w      x
            x---------------------------------------------------------------x
            x  H                 1        -0.000000   0.397046   0.444015   x
            x  H                 2        -0.000000   0.102954   0.944015   x
            x  H                 3        -0.000000   0.897046   0.055985   x
            x  H                 4         0.000000   0.602954   0.555985   x
            x  H                 5         0.500000   0.897046   0.444015   x
            x  H                 6         0.500000   0.602954   0.944015   x
            x  H                 7         0.500000   0.397046   0.055985   x
            x  H                 8         0.500000   0.102954   0.555985   x
            xxxxxxxxxxxxxxxxxxxxxxxxxxxxxxxxxxxxxxxxxxxxxxxxxxxxxxxxxxxxxxxxx


------------------------------------------------------------------------ <-- SCF
SCF loop      Energy                           Energy gain       Timer   <-- SCF
                                               per atom          (sec)   <-- SCF
------------------------------------------------------------------------ <-- SCF
Initial  -1.21315676E+002                                         90.11  <-- SCF
      1  -1.21751497E+002                    5.44776816E-002      91.63  <-- SCF
      2  -1.21754389E+002                    3.61466685E-004      93.60  <-- SCF
      3  -1.21719517E+002                   -4.35894789E-003      95.58  <-- SCF
      4  -1.21718192E+002                   -1.65637172E-004      97.59  <-- SCF
      5  -1.21718201E+002                    1.13291595E-006      99.57  <-- SCF
      6  -1.21718202E+002                    9.53554149E-008     101.57  <-- SCF
      7  -1.21718202E+002                    2.55588626E-010     103.40  <-- SCF
      8  -1.21718202E+002                    2.25643773E-011     104.85  <-- SCF
      9  -1.21718202E+002                    7.28078046E-013     106.28  <-- SCF
     10  -1.21718202E+002                    3.26275639E-013     107.71  <-- SCF
------------------------------------------------------------------------ <-- SCF
 
Final energy =  -121.7182018860     eV
(energy not corrected for finite basis set)
 

 ******************************** Symmetrised Forces ********************************
 *                                                                                  *
 *                           Cartesian components (eV/A)                            *
 * -------------------------------------------------------------------------------- *
 *                         x                    y                    z              *
 *                                                                                  *
 * H               1      0.00000              0.04119              0.01049         *
 * H               2      0.00000             -0.04119              0.01049         *
 * H               3      0.00000              0.04119             -0.01049         *
 * H               4      0.00000             -0.04119             -0.01049         *
 * H               5      0.00000              0.04119              0.01049         *
 * H               6      0.00000             -0.04119              0.01049         *
 * H               7      0.00000              0.04119             -0.01049         *
 * H               8      0.00000             -0.04119             -0.01049         *
 *                                                                                  *
 ************************************************************************************

 *********** Symmetrised Stress Tensor ***********
 *                                               *
 *          Cartesian components (GPa)           *
 * --------------------------------------------- *
 *             x             y             z     *
 *                                               *
 *  x    -81.275619      0.000000      0.000000  *
 *  y      0.000000    -78.024940      0.000000  *
 *  z      0.000000      0.000000    -81.010523  *
 *                                               *
 *  Pressure:   80.1037                          *
 *                                               *
 *************************************************
  
 +------------+-------------+-------------+-----------------+ <-- min LBFGS
 |    Step    |   lambda    |   F.delta'  |    enthalpy     | <-- min LBFGS
 +------------+-------------+-------------+-----------------+ <-- min LBFGS
 |  previous  |    0.000000 |    0.058076 |     -111.691232 | <-- min LBFGS
 | trial step |    1.000000 |   -0.193156 |     -111.630312 | <-- min LBFGS
 |  line step |    0.231166 |    0.010185 |     -111.699603 | <-- min LBFGS
 +------------+-------------+-------------+-----------------+ <-- min LBFGS
  
 LBFGS: finished iteration     2 with enthalpy= -1.11699603E+002 eV
  
 +-----------+-----------------+-----------------+------------+-----+ <-- LBFGS
 | Parameter |      value      |    tolerance    |    units   | OK? | <-- LBFGS
 +-----------+-----------------+-----------------+------------+-----+ <-- LBFGS
 |  dE/ion   |   1.046369E-003 |   1.000000E-009 |         eV | No  | <-- LBFGS
 |  |F|max   |   4.250543E-002 |   1.000000E-005 |       eV/A | No  | <-- LBFGS
 |  |dR|max  |   6.251919E-003 |   1.000000E-005 |          A | No  | <-- LBFGS
 |   Smax    |   1.975060E+000 |   1.000000E-005 |        GPa | No  | <-- LBFGS
 +-----------+-----------------+-----------------+------------+-----+ <-- LBFGS
  

================================================================================
 Starting LBFGS iteration          3 ...
================================================================================
  
 +------------+-------------+-------------+-----------------+ <-- min LBFGS
 |    Step    |   lambda    |   F.delta'  |    enthalpy     | <-- min LBFGS
 +------------+-------------+-------------+-----------------+ <-- min LBFGS
 |  previous  |    0.000000 |    0.013125 |     -111.699603 | <-- min LBFGS
 +------------+-------------+-------------+-----------------+ <-- min LBFGS
  

--------------------------------------------------------------------------------
 LBFGS: starting iteration         3 with trial guess (lambda=  1.000000)
--------------------------------------------------------------------------------

                           -------------------------------
                                      Unit Cell
                           -------------------------------
        Real Lattice(A)              Reciprocal Lattice(1/A)
     2.0364722     0.0000000     0.0000000        3.085328265  -0.000000000   0.000000000
     0.0000000     3.1888713     0.0000000       -0.000000000   1.970347722   0.000000000
     0.0000000     0.0000000     3.0998260        0.000000000   0.000000000   2.026947716

                       Lattice parameters(A)       Cell Angles
                    a =      2.036472          alpha =   90.000000
                    b =      3.188871          beta  =   90.000000
                    c =      3.099826          gamma =   90.000000

                Current cell volume =            20.130419 A**3

                           -------------------------------
                                     Cell Contents
                           -------------------------------

            xxxxxxxxxxxxxxxxxxxxxxxxxxxxxxxxxxxxxxxxxxxxxxxxxxxxxxxxxxxxxxxxx
            x  Element         Atom        Fractional coordinates of atoms  x
            x                 Number           u          v          w      x
            x---------------------------------------------------------------x
            x  H                 1        -0.000000   0.397549   0.443851   x
            x  H                 2        -0.000000   0.102451   0.943851   x
            x  H                 3        -0.000000   0.897549   0.056149   x
            x  H                 4         0.000000   0.602451   0.556149   x
            x  H                 5         0.500000   0.897549   0.443851   x
            x  H                 6         0.500000   0.602451   0.943851   x
            x  H                 7         0.500000   0.397549   0.056149   x
            x  H                 8         0.500000   0.102451   0.556149   x
            xxxxxxxxxxxxxxxxxxxxxxxxxxxxxxxxxxxxxxxxxxxxxxxxxxxxxxxxxxxxxxxxx


------------------------------------------------------------------------ <-- SCF
SCF loop      Energy                           Energy gain       Timer   <-- SCF
                                               per atom          (sec)   <-- SCF
------------------------------------------------------------------------ <-- SCF
Initial  -1.21749565E+002                                        109.44  <-- SCF
      1  -1.21752030E+002                    3.08178954E-004     111.01  <-- SCF
      2  -1.21752040E+002                    1.24592062E-006     112.98  <-- SCF
      3  -1.21751876E+002                   -2.05428381E-005     115.00  <-- SCF
      4  -1.21751869E+002                   -8.08138674E-007     117.02  <-- SCF
      5  -1.21751870E+002                    6.43442749E-009     119.01  <-- SCF
      6  -1.21751870E+002                    5.53212430E-010     121.03  <-- SCF
      7  -1.21751870E+002                    2.03015953E-012     122.46  <-- SCF
      8  -1.21751870E+002                    3.56486346E-013     123.89  <-- SCF
------------------------------------------------------------------------ <-- SCF
 
Final energy =  -121.7518695165     eV
(energy not corrected for finite basis set)
 

 ******************************** Symmetrised Forces ********************************
 *                                                                                  *
 *                           Cartesian components (eV/A)                            *
 * -------------------------------------------------------------------------------- *
 *                         x                    y                    z              *
 *                                                                                  *
 * H               1      0.00000             -0.00125             -0.01372         *
 * H               2      0.00000              0.00125             -0.01372         *
 * H               3      0.00000             -0.00125              0.01372         *
 * H               4      0.00000              0.00125              0.01372         *
 * H               5      0.00000             -0.00125             -0.01372         *
 * H               6      0.00000              0.00125             -0.01372         *
 * H               7      0.00000             -0.00125              0.01372         *
 * H               8      0.00000              0.00125              0.01372         *
 *                                                                                  *
 ************************************************************************************

 *********** Symmetrised Stress Tensor ***********
 *                                               *
 *          Cartesian components (GPa)           *
 * --------------------------------------------- *
 *             x             y             z     *
 *                                               *
 *  x    -80.863306      0.000000      0.000000  *
 *  y      0.000000    -78.569870      0.000000  *
 *  z      0.000000      0.000000    -80.585673  *
 *                                               *
 *  Pressure:   80.0063                          *
 *                                               *
 *************************************************
  
 +------------+-------------+-------------+-----------------+ <-- min LBFGS
 |    Step    |   lambda    |   F.delta'  |    enthalpy     | <-- min LBFGS
 +------------+-------------+-------------+-----------------+ <-- min LBFGS
 |  previous  |    0.000000 |    0.013125 |     -111.699603 | <-- min LBFGS
 | trial step |    1.000000 |    0.005089 |     -111.700334 | <-- min LBFGS
 +------------+-------------+-------------+-----------------+ <-- min LBFGS
  

--------------------------------------------------------------------------------
 LBFGS: improving iteration         3 with line minimization (lambda=  1.633168)
--------------------------------------------------------------------------------

                           -------------------------------
                                      Unit Cell
                           -------------------------------
        Real Lattice(A)              Reciprocal Lattice(1/A)
     2.0388160     0.0000000     0.0000000        3.081781488  -0.000000000   0.000000000
     0.0000000     3.1883400     0.0000000       -0.000000000   1.970676074   0.000000000
     0.0000000     0.0000000     3.1032107        0.000000000   0.000000000   2.024736945

                       Lattice parameters(A)       Cell Angles
                    a =      2.038816          alpha =   90.000000
                    b =      3.188340          beta  =   90.000000
                    c =      3.103211          gamma =   90.000000

                Current cell volume =            20.172230 A**3

                           -------------------------------
                                     Cell Contents
                           -------------------------------

            xxxxxxxxxxxxxxxxxxxxxxxxxxxxxxxxxxxxxxxxxxxxxxxxxxxxxxxxxxxxxxxxx
            x  Element         Atom        Fractional coordinates of atoms  x
            x                 Number           u          v          w      x
            x---------------------------------------------------------------x
            x  H                 1        -0.000000   0.397867   0.443748   x
            x  H                 2        -0.000000   0.102133   0.943748   x
            x  H                 3        -0.000000   0.897867   0.056252   x
            x  H                 4         0.000000   0.602133   0.556252   x
            x  H                 5         0.500000   0.897867   0.443748   x
            x  H                 6         0.500000   0.602133   0.943748   x
            x  H                 7         0.500000   0.397867   0.056252   x
            x  H                 8         0.500000   0.102133   0.556252   x
            xxxxxxxxxxxxxxxxxxxxxxxxxxxxxxxxxxxxxxxxxxxxxxxxxxxxxxxxxxxxxxxxx


------------------------------------------------------------------------ <-- SCF
SCF loop      Energy                           Energy gain       Timer   <-- SCF
                                               per atom          (sec)   <-- SCF
------------------------------------------------------------------------ <-- SCF
Initial  -1.21771952E+002                                        125.60  <-- SCF
      1  -1.21772945E+002                    1.24146282E-004     127.14  <-- SCF
      2  -1.21772949E+002                    5.00522745E-007     129.10  <-- SCF
      3  -1.21772883E+002                   -8.29234201E-006     131.08  <-- SCF
      4  -1.21772880E+002                   -3.23948964E-007     133.06  <-- SCF
      5  -1.21772880E+002                    2.63429211E-009     135.07  <-- SCF
      6  -1.21772880E+002                    2.26689063E-010     136.64  <-- SCF
      7  -1.21772880E+002                    1.20238615E-012     138.06  <-- SCF
      8  -1.21772880E+002                    7.85478390E-014     139.49  <-- SCF
------------------------------------------------------------------------ <-- SCF
 
Final energy =  -121.7728800546     eV
(energy not corrected for finite basis set)
 

 ******************************** Symmetrised Forces ********************************
 *                                                                                  *
 *                           Cartesian components (eV/A)                            *
 * -------------------------------------------------------------------------------- *
 *                         x                    y                    z              *
 *                                                                                  *
 * H               1      0.00000             -0.02796             -0.02929         *
 * H               2      0.00000              0.02796             -0.02929         *
 * H               3      0.00000             -0.02796              0.02929         *
 * H               4      0.00000              0.02796              0.02929         *
 * H               5      0.00000             -0.02796             -0.02929         *
 * H               6      0.00000              0.02796             -0.02929         *
 * H               7      0.00000             -0.02796              0.02929         *
 * H               8      0.00000              0.02796              0.02929         *
 *                                                                                  *
 ************************************************************************************

 *********** Symmetrised Stress Tensor ***********
 *                                               *
 *          Cartesian components (GPa)           *
 * --------------------------------------------- *
 *             x             y             z     *
 *                                               *
 *  x    -80.620998     -0.000000      0.000000  *
 *  y     -0.000000    -78.896655      0.000000  *
 *  z      0.000000      0.000000    -80.333841  *
 *                                               *
 *  Pressure:   79.9505                          *
 *                                               *
 *************************************************
  
 +------------+-------------+-------------+-----------------+ <-- min LBFGS
 |    Step    |   lambda    |   F.delta'  |    enthalpy     | <-- min LBFGS
 +------------+-------------+-------------+-----------------+ <-- min LBFGS
 |  previous  |    0.000000 |    0.013125 |     -111.699603 | <-- min LBFGS
 | trial step |    1.000000 |    0.005089 |     -111.700334 | <-- min LBFGS
 |  line step |    1.633168 |    0.000145 |     -111.700467 | <-- min LBFGS
 +------------+-------------+-------------+-----------------+ <-- min LBFGS
  
 LBFGS: finished iteration     3 with enthalpy= -1.11700467E+002 eV
  
 +-----------+-----------------+-----------------+------------+-----+ <-- LBFGS
 | Parameter |      value      |    tolerance    |    units   | OK? | <-- LBFGS
 +-----------+-----------------+-----------------+------------+-----+ <-- LBFGS
 |  dE/ion   |   1.080212E-004 |   1.000000E-009 |         eV | No  | <-- LBFGS
 |  |F|max   |   4.049169E-002 |   1.000000E-005 |       eV/A | No  | <-- LBFGS
 |  |dR|max  |   2.744919E-003 |   1.000000E-005 |          A | No  | <-- LBFGS
 |   Smax    |   1.103345E+000 |   1.000000E-005 |        GPa | No  | <-- LBFGS
 +-----------+-----------------+-----------------+------------+-----+ <-- LBFGS
  

================================================================================
 Starting LBFGS iteration          4 ...
================================================================================
  
 +------------+-------------+-------------+-----------------+ <-- min LBFGS
 |    Step    |   lambda    |   F.delta'  |    enthalpy     | <-- min LBFGS
 +------------+-------------+-------------+-----------------+ <-- min LBFGS
 |  previous  |    0.000000 |    0.008797 |     -111.700467 | <-- min LBFGS
 +------------+-------------+-------------+-----------------+ <-- min LBFGS
  

--------------------------------------------------------------------------------
 LBFGS: starting iteration         4 with trial guess (lambda=  1.000000)
--------------------------------------------------------------------------------

                           -------------------------------
                                      Unit Cell
                           -------------------------------
        Real Lattice(A)              Reciprocal Lattice(1/A)
     2.0410338     0.0000000     0.0000000        3.078432747  -0.000000000   0.000000000
     0.0000000     3.1833781     0.0000000       -0.000000000   1.973747761   0.000000000
     0.0000000     0.0000000     3.1055465        0.000000000   0.000000000   2.023214079

                       Lattice parameters(A)       Cell Angles
                    a =      2.041034          alpha =   90.000000
                    b =      3.183378          beta  =   90.000000
                    c =      3.105546          gamma =   90.000000

                Current cell volume =            20.177922 A**3

                           -------------------------------
                                     Cell Contents
                           -------------------------------

            xxxxxxxxxxxxxxxxxxxxxxxxxxxxxxxxxxxxxxxxxxxxxxxxxxxxxxxxxxxxxxxxx
            x  Element         Atom        Fractional coordinates of atoms  x
            x                 Number           u          v          w      x
            x---------------------------------------------------------------x
            x  H                 1        -0.000000   0.398033   0.443144   x
            x  H                 2        -0.000000   0.101967   0.943144   x
            x  H                 3        -0.000000   0.898033   0.056856   x
            x  H                 4         0.000000   0.601967   0.556856   x
            x  H                 5         0.500000   0.898033   0.443144   x
            x  H                 6         0.500000   0.601967   0.943144   x
            x  H                 7         0.500000   0.398033   0.056856   x
            x  H                 8         0.500000   0.101967   0.556856   x
            xxxxxxxxxxxxxxxxxxxxxxxxxxxxxxxxxxxxxxxxxxxxxxxxxxxxxxxxxxxxxxxxx


------------------------------------------------------------------------ <-- SCF
SCF loop      Energy                           Energy gain       Timer   <-- SCF
                                               per atom          (sec)   <-- SCF
------------------------------------------------------------------------ <-- SCF
Initial  -1.21774976E+002                                        141.25  <-- SCF
      1  -1.21776270E+002                    1.61760879E-004     142.83  <-- SCF
      2  -1.21776276E+002                    7.29788274E-007     144.80  <-- SCF
      3  -1.21776306E+002                    3.74866304E-006     146.81  <-- SCF
      4  -1.21776308E+002                    2.69609805E-007     148.77  <-- SCF
      5  -1.21776308E+002                    1.50854750E-009     150.74  <-- SCF
      6  -1.21776308E+002                    1.44600529E-010     152.16  <-- SCF
      7  -1.21776308E+002                    7.76415178E-013     153.59  <-- SCF
      8  -1.21776308E+002                    4.83371317E-014     155.02  <-- SCF
------------------------------------------------------------------------ <-- SCF
 
Final energy =  -121.7763084487     eV
(energy not corrected for finite basis set)
 

 ******************************** Symmetrised Forces ********************************
 *                                                                                  *
 *                           Cartesian components (eV/A)                            *
 * -------------------------------------------------------------------------------- *
 *                         x                    y                    z              *
 *                                                                                  *
 * H               1      0.00000             -0.01898             -0.02347         *
 * H               2     -0.00000              0.01898             -0.02347         *
 * H               3     -0.00000             -0.01898              0.02347         *
 * H               4     -0.00000              0.01898              0.02347         *
 * H               5      0.00000             -0.01898             -0.02347         *
 * H               6     -0.00000              0.01898             -0.02347         *
 * H               7     -0.00000             -0.01898              0.02347         *
 * H               8     -0.00000              0.01898              0.02347         *
 *                                                                                  *
 ************************************************************************************

 *********** Symmetrised Stress Tensor ***********
 *                                               *
 *          Cartesian components (GPa)           *
 * --------------------------------------------- *
 *             x             y             z     *
 *                                               *
 *  x    -80.585073     -0.000000      0.000000  *
 *  y     -0.000000    -79.144483      0.000000  *
 *  z      0.000000      0.000000    -79.983601  *
 *                                               *
 *  Pressure:   79.9044                          *
 *                                               *
 *************************************************
  
 +------------+-------------+-------------+-----------------+ <-- min LBFGS
 |    Step    |   lambda    |   F.delta'  |    enthalpy     | <-- min LBFGS
 +------------+-------------+-------------+-----------------+ <-- min LBFGS
 |  previous  |    0.000000 |    0.008797 |     -111.700467 | <-- min LBFGS
 | trial step |    1.000000 |    0.006979 |     -111.701054 | <-- min LBFGS
 +------------+-------------+-------------+-----------------+ <-- min LBFGS
  

--------------------------------------------------------------------------------
 LBFGS: improving iteration         4 with line minimization (lambda=  4.837064)
--------------------------------------------------------------------------------

                           -------------------------------
                                      Unit Cell
                           -------------------------------
        Real Lattice(A)              Reciprocal Lattice(1/A)
     2.0495438     0.0000000     0.0000000        3.065650670  -0.000000000   0.000000000
     0.0000000     3.1643388     0.0000000       -0.000000000   1.985623417   0.000000000
     0.0000000     0.0000000     3.1145090        0.000000000   0.000000000   2.017391945

                       Lattice parameters(A)       Cell Angles
                    a =      2.049544          alpha =   90.000000
                    b =      3.164339          beta  =   90.000000
                    c =      3.114509          gamma =   90.000000

                Current cell volume =            20.198995 A**3

                           -------------------------------
                                     Cell Contents
                           -------------------------------

            xxxxxxxxxxxxxxxxxxxxxxxxxxxxxxxxxxxxxxxxxxxxxxxxxxxxxxxxxxxxxxxxx
            x  Element         Atom        Fractional coordinates of atoms  x
            x                 Number           u          v          w      x
            x---------------------------------------------------------------x
            x  H                 1        -0.000000   0.398670   0.440827   x
            x  H                 2        -0.000000   0.101330   0.940827   x
            x  H                 3        -0.000000   0.898670   0.059173   x
            x  H                 4         0.000000   0.601330   0.559173   x
            x  H                 5         0.500000   0.898670   0.440827   x
            x  H                 6         0.500000   0.601330   0.940827   x
            x  H                 7         0.500000   0.398670   0.059173   x
            x  H                 8         0.500000   0.101330   0.559173   x
            xxxxxxxxxxxxxxxxxxxxxxxxxxxxxxxxxxxxxxxxxxxxxxxxxxxxxxxxxxxxxxxxx


------------------------------------------------------------------------ <-- SCF
SCF loop      Energy                           Energy gain       Timer   <-- SCF
                                               per atom          (sec)   <-- SCF
------------------------------------------------------------------------ <-- SCF
Initial  -1.21768181E+002                                        156.74  <-- SCF
      1  -1.21787162E+002                    2.37257451E-003     158.29  <-- SCF
      2  -1.21787252E+002                    1.12048617E-005     160.26  <-- SCF
      3  -1.21787690E+002                    5.47646119E-005     162.24  <-- SCF
      4  -1.21787721E+002                    3.92847095E-006     164.18  <-- SCF
      5  -1.21787721E+002                    2.20266992E-008     166.17  <-- SCF
      6  -1.21787721E+002                    2.14904773E-009     168.12  <-- SCF
      7  -1.21787721E+002                    5.60408620E-012     169.55  <-- SCF
      8  -1.21787721E+002                    4.62223822E-013     171.03  <-- SCF
------------------------------------------------------------------------ <-- SCF
 
Final energy =  -121.7877213267     eV
(energy not corrected for finite basis set)
 

 ******************************** Symmetrised Forces ********************************
 *                                                                                  *
 *                           Cartesian components (eV/A)                            *
 * -------------------------------------------------------------------------------- *
 *                         x                    y                    z              *
 *                                                                                  *
 * H               1      0.00000              0.01925              0.00301         *
 * H               2     -0.00000             -0.01925              0.00301         *
 * H               3      0.00000              0.01925             -0.00301         *
 * H               4     -0.00000             -0.01925             -0.00301         *
 * H               5     -0.00000              0.01925              0.00301         *
 * H               6     -0.00000             -0.01925              0.00301         *
 * H               7      0.00000              0.01925             -0.00301         *
 * H               8     -0.00000             -0.01925             -0.00301         *
 *                                                                                  *
 ************************************************************************************

 *********** Symmetrised Stress Tensor ***********
 *                                               *
 *          Cartesian components (GPa)           *
 * --------------------------------------------- *
 *             x             y             z     *
 *                                               *
 *  x    -80.387358      0.000000      0.000000  *
 *  y      0.000000    -80.074004      0.000000  *
 *  z      0.000000      0.000000    -78.488580  *
 *                                               *
 *  Pressure:   79.6500                          *
 *                                               *
 *************************************************
  
 +------------+-------------+-------------+-----------------+ <-- min LBFGS
 |    Step    |   lambda    |   F.delta'  |    enthalpy     | <-- min LBFGS
 +------------+-------------+-------------+-----------------+ <-- min LBFGS
 |  previous  |    0.000000 |    0.008797 |     -111.700467 | <-- min LBFGS
 | trial step |    1.000000 |    0.006979 |     -111.701054 | <-- min LBFGS
 |  line step |    4.837064 |   -0.000930 |     -111.701944 | <-- min LBFGS
 +------------+-------------+-------------+-----------------+ <-- min LBFGS
  
 LBFGS: finished iteration     4 with enthalpy= -1.11701944E+002 eV
  
 +-----------+-----------------+-----------------+------------+-----+ <-- LBFGS
 | Parameter |      value      |    tolerance    |    units   | OK? | <-- LBFGS
 +-----------+-----------------+-----------------+------------+-----+ <-- LBFGS
 |  dE/ion   |   1.845822E-004 |   1.000000E-009 |         eV | No  | <-- LBFGS
 |  |F|max   |   1.948737E-002 |   1.000000E-005 |       eV/A | No  | <-- LBFGS
 |  |dR|max  |   9.445558E-003 |   1.000000E-005 |          A | No  | <-- LBFGS
[...]
                    b =      3.157826          beta  =   90.000000
                    c =      3.096343          gamma =   90.000000

                Current cell volume =            20.200954 A**3

                           -------------------------------
                                     Cell Contents
                           -------------------------------

            xxxxxxxxxxxxxxxxxxxxxxxxxxxxxxxxxxxxxxxxxxxxxxxxxxxxxxxxxxxxxxxxx
            x  Element         Atom        Fractional coordinates of atoms  x
            x                 Number           u          v          w      x
            x---------------------------------------------------------------x
            x  H                 1         0.000000   0.400236   0.437892   x
            x  H                 2         0.000000   0.099764   0.937892   x
            x  H                 3        -0.000000   0.900236   0.062108   x
            x  H                 4         0.000000   0.599764   0.562108   x
            x  H                 5         0.500000   0.900236   0.437892   x
            x  H                 6         0.500000   0.599764   0.937892   x
            x  H                 7         0.500000   0.400236   0.062108   x
            x  H                 8         0.500000   0.099764   0.562108   x
            xxxxxxxxxxxxxxxxxxxxxxxxxxxxxxxxxxxxxxxxxxxxxxxxxxxxxxxxxxxxxxxxx


------------------------------------------------------------------------ <-- SCF
SCF loop      Energy                           Energy gain       Timer   <-- SCF
                                               per atom          (sec)   <-- SCF
------------------------------------------------------------------------ <-- SCF
Initial  -1.21789681E+002                                        340.44  <-- SCF
      1  -1.21789681E+002                    4.81256567E-012     341.43  <-- SCF
      2  -1.21789681E+002                    2.11474951E-014     342.90  <-- SCF
      3  -1.21789681E+002                   -1.45011395E-013     344.34  <-- SCF
      4  -1.21789681E+002                   -2.68875295E-013     345.76  <-- SCF
------------------------------------------------------------------------ <-- SCF
 
Final energy =  -121.7896806290     eV
(energy not corrected for finite basis set)
 

 ******************************** Symmetrised Forces ********************************
 *                                                                                  *
 *                           Cartesian components (eV/A)                            *
 * -------------------------------------------------------------------------------- *
 *                         x                    y                    z              *
 *                                                                                  *
 * H               1     -0.00000              0.00000              0.00000         *
 * H               2      0.00000             -0.00000              0.00000         *
 * H               3      0.00000              0.00000             -0.00000         *
 * H               4     -0.00000             -0.00000             -0.00000         *
 * H               5     -0.00000              0.00000              0.00000         *
 * H               6      0.00000             -0.00000              0.00000         *
 * H               7      0.00000              0.00000             -0.00000         *
 * H               8     -0.00000             -0.00000             -0.00000         *
 *                                                                                  *
 ************************************************************************************

 *********** Symmetrised Stress Tensor ***********
 *                                               *
 *          Cartesian components (GPa)           *
 * --------------------------------------------- *
 *             x             y             z     *
 *                                               *
 *  x    -80.000016     -0.000000      0.000000  *
 *  y     -0.000000    -79.999988      0.000000  *
 *  z      0.000000      0.000000    -80.000004  *
 *                                               *
 *  Pressure:   80.0000                          *
 *                                               *
 *************************************************
  
 +------------+-------------+-------------+-----------------+ <-- min LBFGS
 |    Step    |   lambda    |   F.delta'  |    enthalpy     | <-- min LBFGS
 +------------+-------------+-------------+-----------------+ <-- min LBFGS
 |  previous  |    0.000000 |  6.092E-008 |     -111.702925 | <-- min LBFGS
 | trial step |    1.000000 | -7.834E-008 |     -111.702925 | <-- min LBFGS
 +------------+-------------+-------------+-----------------+ <-- min LBFGS
  

--------------------------------------------------------------------------------
 LBFGS: improving iteration        13 with line minimization (lambda=  0.437451)
--------------------------------------------------------------------------------

                           -------------------------------
                                      Unit Cell
                           -------------------------------
        Real Lattice(A)              Reciprocal Lattice(1/A)
     2.0660201     0.0000000     0.0000000        3.041202468  -0.000000000   0.000000000
     0.0000000     3.1578264     0.0000000       -0.000000000   1.989718413   0.000000000
     0.0000000     0.0000000     3.0963433        0.000000000   0.000000000   2.029227579

                       Lattice parameters(A)       Cell Angles
                    a =      2.066020          alpha =   90.000000
                    b =      3.157826          beta  =   90.000000
                    c =      3.096343          gamma =   90.000000

                Current cell volume =            20.200955 A**3

                           -------------------------------
                                     Cell Contents
                           -------------------------------

            xxxxxxxxxxxxxxxxxxxxxxxxxxxxxxxxxxxxxxxxxxxxxxxxxxxxxxxxxxxxxxxxx
            x  Element         Atom        Fractional coordinates of atoms  x
            x                 Number           u          v          w      x
            x---------------------------------------------------------------x
            x  H                 1         0.000000   0.400236   0.437892   x
            x  H                 2         0.000000   0.099764   0.937892   x
            x  H                 3         0.000000   0.900236   0.062108   x
            x  H                 4         0.000000   0.599764   0.562108   x
            x  H                 5         0.500000   0.900236   0.437892   x
            x  H                 6         0.500000   0.599764   0.937892   x
            x  H                 7         0.500000   0.400236   0.062108   x
            x  H                 8         0.500000   0.099764   0.562108   x
            xxxxxxxxxxxxxxxxxxxxxxxxxxxxxxxxxxxxxxxxxxxxxxxxxxxxxxxxxxxxxxxxx


------------------------------------------------------------------------ <-- SCF
SCF loop      Energy                           Energy gain       Timer   <-- SCF
                                               per atom          (sec)   <-- SCF
------------------------------------------------------------------------ <-- SCF
Initial  -1.21789681E+002                                        347.46  <-- SCF
      1  -1.21789681E+002                    4.50743753E-012     348.45  <-- SCF
      2  -1.21789681E+002                    3.02107073E-015     349.88  <-- SCF
      3  -1.21789681E+002                    8.45899804E-014     351.32  <-- SCF
      4  -1.21789681E+002                   -2.71896366E-014     352.80  <-- SCF
------------------------------------------------------------------------ <-- SCF
 
Final energy =  -121.7896808244     eV
(energy not corrected for finite basis set)
 

 ******************************** Symmetrised Forces ********************************
 *                                                                                  *
 *                           Cartesian components (eV/A)                            *
 * -------------------------------------------------------------------------------- *
 *                         x                    y                    z              *
 *                                                                                  *
 * H               1     -0.00000              0.00000              0.00000         *
 * H               2     -0.00000             -0.00000              0.00000         *
 * H               3      0.00000              0.00000             -0.00000         *
 * H               4      0.00000             -0.00000             -0.00000         *
 * H               5     -0.00000              0.00000              0.00000         *
 * H               6      0.00000             -0.00000              0.00000         *
 * H               7      0.00000              0.00000             -0.00000         *
 * H               8      0.00000             -0.00000             -0.00000         *
 *                                                                                  *
 ************************************************************************************

 *********** Symmetrised Stress Tensor ***********
 *                                               *
 *          Cartesian components (GPa)           *
 * --------------------------------------------- *
 *             x             y             z     *
 *                                               *
 *  x    -80.000009      0.000000      0.000000  *
 *  y      0.000000    -79.999993      0.000000  *
 *  z      0.000000      0.000000    -80.000003  *
 *                                               *
 *  Pressure:   80.0000                          *
 *                                               *
 *************************************************
  
 +------------+-------------+-------------+-----------------+ <-- min LBFGS
 |    Step    |   lambda    |   F.delta'  |    enthalpy     | <-- min LBFGS
 +------------+-------------+-------------+-----------------+ <-- min LBFGS
 |  previous  |    0.000000 |  6.092E-008 |     -111.702925 | <-- min LBFGS
 | trial step |    1.000000 | -7.834E-008 |     -111.702925 | <-- min LBFGS
 |  line step |    0.437451 | -4.205E-008 |     -111.702925 | <-- min LBFGS
 +------------+-------------+-------------+-----------------+ <-- min LBFGS
  
 LBFGS: finished iteration    13 with enthalpy= -1.11702925E+002 eV
  
 +-----------+-----------------+-----------------+------------+-----+ <-- LBFGS
 | Parameter |      value      |    tolerance    |    units   | OK? | <-- LBFGS
 +-----------+-----------------+-----------------+------------+-----+ <-- LBFGS
 |  dE/ion   |   1.027164E-013 |   1.000000E-009 |         eV | Yes | <-- LBFGS
 |  |F|max   |   2.946631E-007 |   1.000000E-005 |       eV/A | Yes | <-- LBFGS
 |  |dR|max  |   4.323553E-008 |   1.000000E-005 |          A | Yes | <-- LBFGS
 |   Smax    |   9.040889E-006 |   1.000000E-005 |        GPa | Yes | <-- LBFGS
 +-----------+-----------------+-----------------+------------+-----+ <-- LBFGS
  
 LBFGS: Geometry optimization completed successfully.

================================================================================
 LBFGS: Final Configuration:
================================================================================

                           -------------------------------
                                      Unit Cell
                           -------------------------------
        Real Lattice(A)              Reciprocal Lattice(1/A)
     2.0660201     0.0000000     0.0000000        3.041202468  -0.000000000   0.000000000
     0.0000000     3.1578264     0.0000000       -0.000000000   1.989718413   0.000000000
     0.0000000     0.0000000     3.0963433        0.000000000   0.000000000   2.029227579

                       Lattice parameters(A)       Cell Angles
                    a =      2.066020          alpha =   90.000000
                    b =      3.157826          beta  =   90.000000
                    c =      3.096343          gamma =   90.000000

                Current cell volume =            20.200955 A**3

                           -------------------------------
                                     Cell Contents
                           -------------------------------

            xxxxxxxxxxxxxxxxxxxxxxxxxxxxxxxxxxxxxxxxxxxxxxxxxxxxxxxxxxxxxxxxx
            x  Element         Atom        Fractional coordinates of atoms  x
            x                 Number           u          v          w      x
            x---------------------------------------------------------------x
            x  H                 1         0.000000   0.400236   0.437892   x
            x  H                 2         0.000000   0.099764   0.937892   x
            x  H                 3         0.000000   0.900236   0.062108   x
            x  H                 4         0.000000   0.599764   0.562108   x
            x  H                 5         0.500000   0.900236   0.437892   x
            x  H                 6         0.500000   0.599764   0.937892   x
            x  H                 7         0.500000   0.400236   0.062108   x
            x  H                 8         0.500000   0.099764   0.562108   x
            xxxxxxxxxxxxxxxxxxxxxxxxxxxxxxxxxxxxxxxxxxxxxxxxxxxxxxxxxxxxxxxxx


 LBFGS: Final Enthalpy     = -1.11702925E+002 eV
 LBFGS: Final <frequency>  =    2240.09541 cm-1
 LBFGS: Final bulk modulus =     194.04456 GPa

 ******************************** Symmetrised Forces ********************************
 *                                                                                  *
 *                           Cartesian components (eV/A)                            *
 * -------------------------------------------------------------------------------- *
 *                         x                    y                    z              *
 *                                                                                  *
 * H               1     -0.00000              0.00000              0.00000         *
 * H               2     -0.00000             -0.00000              0.00000         *
 * H               3      0.00000              0.00000             -0.00000         *
 * H               4      0.00000             -0.00000             -0.00000         *
 * H               5     -0.00000              0.00000              0.00000         *
 * H               6      0.00000             -0.00000              0.00000         *
 * H               7      0.00000              0.00000             -0.00000         *
 * H               8      0.00000             -0.00000             -0.00000         *
 *                                                                                  *
 ************************************************************************************

 *********** Symmetrised Stress Tensor ***********
 *                                               *
 *          Cartesian components (GPa)           *
 * --------------------------------------------- *
 *             x             y             z     *
 *                                               *
 *  x    -80.000009      0.000000      0.000000  *
 *  y      0.000000    -79.999993      0.000000  *
 *  z      0.000000      0.000000    -80.000003  *
 *                                               *
 *  Pressure:   80.0000                          *
 *                                               *
 *************************************************

 Pseudo atomic calculation performed for H 1s1

 Converged in 24 iterations to a total energy of -12.4855 eV

Charge spilling parameter for spin component 1 = 0.56%

            Orbital Populations       
     Ion    Atom   Orbital             Charge
  -------------------------------------------
      H     1      S                    0.997
      H     2      S                    1.003
      H     3      S                    1.003
      H     4      S                    0.997
      H     5      S                    0.997
      H     6      S                    1.003
      H     7      S                    1.003
      H     8      S                    0.997
  -------------------------------------------
                           Total:       8.000
  -------------------------------------------

     Atomic Populations (Mulliken)
     -----------------------------
Species          Ion     s      p      d      f     Total  Charge (e)
=====================================================================
  H               1     1.00   0.00   0.00   0.00   1.00     0.00
  H               2     1.00   0.00   0.00   0.00   1.00     0.00
  H               3     1.00   0.00   0.00   0.00   1.00     0.00
  H               4     1.00   0.00   0.00   0.00   1.00     0.00
  H               5     1.00   0.00   0.00   0.00   1.00     0.00
  H               6     1.00   0.00   0.00   0.00   1.00     0.00
  H               7     1.00   0.00   0.00   0.00   1.00     0.00
  H               8     1.00   0.00   0.00   0.00   1.00     0.00
=====================================================================

                 Bond                   Population      Length (A)
======================================================================
               H 2 -- H 3                    1.35        0.73819
               H 5 -- H 8                    1.35        0.73819
               H 6 -- H 7                    1.35        0.73819
               H 1 -- H 4                    1.35        0.73819
               H 3 -- H 6                   -0.17        1.45442
               H 4 -- H 5                   -0.17        1.45442
               H 2 -- H 7                   -0.17        1.45442
               H 1 -- H 8                   -0.17        1.45442
               H 3 -- H 5                   -0.27        1.55595
               H 1 -- H 7                   -0.27        1.55595
               H 4 -- H 6                   -0.27        1.55595
               H 2 -- H 8                   -0.27        1.55595
               H 5 -- H 6                   -0.03        1.81580
               H 1 -- H 2                   -0.03        1.81580
               H 3 -- H 4                   -0.03        1.81580
               H 7 -- H 8                   -0.03        1.81580
               H 4 -- H 8                   -0.46        1.88682
               H 2 -- H 6                   -0.46        1.88682
               H 3 -- H 7                   -0.46        1.88682
               H 1 -- H 5                   -0.46        1.88682
               H 6 -- H 8                   -0.11        1.96133
               H 2 -- H 4                   -0.11        1.96133
               H 5 -- H 7                   -0.11        1.96133
               H 1 -- H 3                   -0.11        1.96133
               H 2 -- H 5                   -0.39        1.96493
               H 1 -- H 6                   -0.39        1.96493
               H 3 -- H 8                   -0.39        1.96493
               H 4 -- H 7                   -0.39        1.96493
======================================================================


Writing analysis data to Cmca4.castep_bin

Writing model to Cmca4.check
 
 A BibTeX formatted list of references used in this run has been written to 
 Cmca4.bib
 
Initialisation time =      4.70 s
Calculation time    =    350.80 s
Finalisation time   =      5.98 s
Total time          =    361.48 s
Peak Memory Use     = 554532 kB
  
Overall parallel efficiency rating: Excellent (95%)                             
  
Data was distributed by:-
k-point (32-way); efficiency rating: Excellent (96%)                            
  
Parallel notes:
1) Calculation only took 355.5 s, so efficiency estimates may be inaccurate.    
