 +-------------------------------------------------+
 |                                                 |
 |      CCC   AA    SSS  TTTTT  EEEEE  PPPP        |
 |     C     A  A  S       T    E      P   P       |
 |     C     AAAA   SS     T    EEE    PPPP        |
 |     C     A  A     S    T    E      P           |
 |      CCC  A  A  SSS     T    EEEEE  P           |
 |                                                 |
 +-------------------------------------------------+
 |                                                 |
 | Welcome to Academic Release CASTEP version 18.1 |          
 | Ab Initio Total Energy Program                  |
 |                                                 |
 | Authors:                                        |
 | M. Segall, M. Probert, C. Pickard, P. Hasnip,   |
 | S. Clark, K. Refson, J. R. Yates, M. Payne      |
 |                                                 |
 | Contributors:                                   |
 | P. Lindan, P. Haynes, J. White, V. Milman,      |
 | N. Govind, M. Gibson, P. Tulip, V. Cocula,      |
 | B. Montanari, D. Quigley, M. Glover,            |
 | L. Bernasconi, A. Perlov, M. Plummer,           |
 | E. McNellis, J. Meyer, J. Gale, D. Jochym       |
 | J. Aarons, B. Walker, R. Gillen, D. Jones       |
 | T. Green, I. J. Bush, C. J. Armstrong,          |
 | E. J. Higgins, E. L. Brown, M. S. McFly,        |
 | J. Wilkins, B-C. Shih, P. J. P. Byrne           |
 |                                                 |
 | Copyright (c) 2000 - 2017                       |
 |                                                 |
 |     Distributed under the terms of an           |
 |     Agreement between the United Kingdom        |
 |     Car-Parrinello (UKCP) Consortium,           |
 |     Daresbury Laboratory and Accelrys, Inc.     |
 |                                                 |
 | Please cite                                     |
 |                                                 |
 |     "First principles methods using CASTEP"     |
 |                                                 |
 |         Zeitschrift fuer Kristallographie       |
 |           220(5-6) pp. 567-570 (2005)           |
 |                                                 |
 | S. J. Clark, M. D. Segall, C. J. Pickard,       |
 | P. J. Hasnip, M. J. Probert, K. Refson,         |
 | M. C. Payne                                     |
 |                                                 |
 |       in all publications arising from          |
 |              your use of CASTEP                 |
 |                                                 |
 +-------------------------------------------------+


 Compiled for linux_x86_64_gfortran4.8 on Thu, 19 Jul 2018 15:42:32 +0100
 from code version 70483bd0ad64+  Sun, 10 Dec 2017 12:18:29 +0000
 Compiler: GNU Fortran 4.8.5; Optimisation: fast
 MATHLIBS: Intel MKL(2018.0.0) (LAPACK version 3.7.0)
 FFT Lib : mkl
 Fundamental constants values: CODATA 2014

 Run started: Thu, 27 Aug 2020 11:22:09 +0100

 Atomic calculation performed for H: 1s1

 Converged in 41 iterations to an ae energy of -12.488 eV

   ============================================================                
   | Pseudopotential Report - Date of generation 27-08-2020   |                
   ------------------------------------------------------------                
   | Element: H Ionic charge:  1.00 Level of theory: PBE      |                
   | Atomic Solver: Koelling-Harmon                           |                
   |                                                          |                
   |               Reference Electronic Structure             |                
   |         Orbital         Occupation         Energy        |                
   |            1s              1.000           -0.239        |                
   |                                                          |                
   |                 Pseudopotential Definition               |                
   |        Beta     l      e      Rc     scheme   norm       |                
   |         loc     0   -0.239   0.702     qc      1         |                
   |                                                          |                
   | No charge augmentation                                   |                
   | No partial core correction                               |                
   ------------------------------------------------------------                
   | "0|0.7|2|6|8|10L(qc=10)"                                 |                
   ------------------------------------------------------------                
   |      Author: Chris J. Pickard, Cambridge University      |                
   ============================================================                

 Pseudo atomic calculation performed for H 1s1

 Converged in 24 iterations to a total energy of -12.4855 eV

 Calculation parallelised over 32 processes.
 Data is distributed by k-point(32-way)

 ************************************ Title ************************************
 

 ***************************** General Parameters ******************************
  
 output verbosity                               : normal  (1)
 write checkpoint data to                       : Cmca4.check
 type of calculation                            : geometry optimization
 stress calculation                             : on
 density difference calculation                 : off
 electron localisation func (ELF) calculation   : off
 Hirshfeld analysis                             : off
 unlimited duration calculation
 timing information                             : on
 memory usage estimate                          : on
 write extra output files                       : on
 write final potential to formatted file        : off
 write final density to formatted file          : off
 write structure in CELL formatted file         : on
 write BibTeX reference list                    : on
 write OTFG pseudopotential files               : on
 write electrostatic potential file             : on
 write bands file                               : on
 checkpoint writing                             : both castep_bin and check files
  
 output         length unit                     : A
 output           mass unit                     : amu
 output           time unit                     : ps
 output         charge unit                     : e
 output           spin unit                     : hbar/2
 output         energy unit                     : eV
 output          force unit                     : eV/A
 output       velocity unit                     : A/ps
 output       pressure unit                     : GPa
 output     inv_length unit                     : 1/A
 output      frequency unit                     : cm-1
 output force constant unit                     : eV/A**2
 output         volume unit                     : A**3
 output   IR intensity unit                     : (D/A)**2/amu
 output         dipole unit                     : D
 output         efield unit                     : eV/A/e
 output        entropy unit                     : J/mol/K
  
 wavefunctions paging                           : none
 random number generator seed                   : randomised (112211067)
 data distribution                              : optimal for this architecture
 optimization strategy                          : maximize speed(+++)

 *********************** Exchange-Correlation Parameters ***********************
  
 using functional                               : Perdew Burke Ernzerhof
 relativistic treatment                         : Koelling-Harmon
 DFT+D: Semi-empirical dispersion correction    : off

 ************************* Pseudopotential Parameters **************************
  
 pseudopotential representation                 : reciprocal space
 <beta|phi> representation                      : reciprocal space
 spin-orbit coupling                            : off

 **************************** Basis Set Parameters *****************************
  
 plane wave basis set cut-off                   :  1600.0000   eV
 size of standard grid                          :     2.0000
 size of   fine   gmax                          :    40.9853   1/A
 finite basis set correction                    : automatic
 number of sample energies                      :          3
           sample  spacing                      :     5.0000   eV

 **************************** Electronic Parameters ****************************
  
 number of  electrons                           :  8.000    
 net charge of system                           :  0.000    
 treating system as non-spin-polarized
 number of bands                                :          4

 ********************* Electronic Minimization Parameters **********************
  
 Method: Treating system as non-metallic,
         and number of  SD  steps               :          1
         and number of  CG  steps               :          4
  
 total energy / atom convergence tol.           : 0.1000E-10   eV
 eigen-energy convergence tolerance             : 0.2000E-10   eV
 max force / atom convergence tol.              : ignored
 convergence tolerance window                   :          3   cycles
 max. number of SCF cycles                      :        100
 periodic dipole correction                     : NONE

 ************************** Density Mixing Parameters **************************
  
 density-mixing scheme                          : Broyden
 max. length of mixing history                  :         20
 charge density mixing amplitude                : 0.8000    
 cut-off energy for mixing                      :  1600.       eV

 *********************** Population Analysis Parameters ************************
  
 Population analysis with cutoff                :  3.000       A
 Population analysis output                     : summary and pdos components

 ********************** Geometry Optimization Parameters ***********************
  
 optimization method                            : LBFGS
 max. no. of LBFGS updates                      : unbounded
 variable cell method                           : fixed basis quality
 max. number of steps                           :        200
 estimated bulk modulus                         :  500.0       GPa
 estimated <frequency>                          :  1668.       cm-1
 geom line minimiser                            : on
 with line minimiser tolerance                  :     0.4000
 total energy convergence tolerance             : 0.1000E-08   eV/atom
        max ionic |force| tolerance             : 0.1000E-04   eV/A
 max ionic |displacement| tolerance             : 0.1000E-04   A
   max |stress component| tolerance             : 0.1000E-04   GPa
 convergence tolerance window                   :          2   steps
 backup results every                           :      14400   seconds
 write geom trajectory file                     : on

 *******************************************************************************
  

                           -------------------------------
                                      Unit Cell
                           -------------------------------
        Real Lattice(A)                      Reciprocal Lattice(1/A)
     1.7777729     0.0000000     0.0000000        3.534301431  -0.000000000   0.000000000
     0.0000000     2.9724622     0.0000000       -0.000000000   2.113798240   0.000000000
     0.0000000     0.0000000     2.7646746        0.000000000   0.000000000   2.272667212

                       Lattice parameters(A)       Cell Angles
                    a =      1.777773          alpha =   90.000000
                    b =      2.972462          beta  =   90.000000
                    c =      2.764675          gamma =   90.000000

                       Current cell volume =            14.609543       A**3
                                   density =             0.551935   AMU/A**3
                                           =             0.916510     g/cm^3

                           -------------------------------
                                     Cell Contents
                           -------------------------------
                         Total number of ions in cell =    8
                      Total number of species in cell =    1
                        Max number of any one species =    8

            xxxxxxxxxxxxxxxxxxxxxxxxxxxxxxxxxxxxxxxxxxxxxxxxxxxxxxxxxxxx
            x  Element    Atom        Fractional coordinates of atoms  x
            x            Number           u          v          w      x
            x----------------------------------------------------------x
            x  H            1        -0.000000   0.380346   0.448144   x 
            x  H            2         0.000000   0.119654   0.948144   x 
            x  H            3        -0.000000   0.880346   0.051856   x 
            x  H            4        -0.000000   0.619654   0.551856   x 
            x  H            5         0.500000   0.880346   0.448144   x 
            x  H            6         0.500000   0.619654   0.948144   x 
            x  H            7         0.500000   0.380346   0.051856   x 
            x  H            8         0.500000   0.119654   0.551856   x 
            xxxxxxxxxxxxxxxxxxxxxxxxxxxxxxxxxxxxxxxxxxxxxxxxxxxxxxxxxxxx


                         No user defined ionic velocities

                           -------------------------------
                                   Details of Species
                           -------------------------------

                               Mass of species in AMU
                                    H    1.0079400

                          Electric Quadrupole Moment (Barn)
                                    H    0.0028600 Isotope  2

                          Files used for pseudopotentials:
                                    H 0|0.7|2|6|8|10L(qc=10)

                           -------------------------------
                              k-Points For BZ Sampling
                           -------------------------------
                       MP grid size for SCF calculation is 18 18 18
                            with an offset of   0.000  0.000  0.000
                       Number of kpoints used =           729

                           -------------------------------
                               Symmetry and Constraints
                           -------------------------------

                      Cell is a supercell containing 2 primitive cells
                      Maximum deviation from symmetry = 0.306941E-14     ANG

                      Number of symmetry operations   =          16
                      Number of ionic constraints     =           3
                      Point group of crystal =     8: D2h, mmm, 2/m 2/m 2/m
                      Space group of crystal =    64: Cmce, -C 2bc 2

             Set iprint > 1 for details on symmetry rotations/translations

                         Centre of mass is constrained
             Set iprint > 1 for details of linear ionic constraints

                         Number of cell constraints= 3
                         Cell constraints are:  1 2 3 0 0 0

                         External pressure/stress (GPa)
                        160.00000   0.00000   0.00000
                                  160.00000   0.00000
                                            160.00000
  
+---------------- MEMORY AND SCRATCH DISK ESTIMATES PER PROCESS --------------+
|                                                     Memory          Disk    |
| Baseline code, static data and system overhead      479.0 MB         0.0 MB |
| BLAS internal memory storage                          0.0 MB         0.0 MB |
| Model and support data                               23.8 MB         0.0 MB |
| Electronic energy minimisation requirements          14.4 MB         0.0 MB |
| Force calculation requirements                        4.4 MB         0.0 MB |
| Stress calculation requirements                       5.6 MB         0.0 MB |
|                                               ----------------------------- |
| Approx. total storage required per process          517.2 MB         0.0 MB |
|                                                                             |
| Requirements will fluctuate during execution and may exceed these estimates |
+-----------------------------------------------------------------------------+
Calculating finite basis set correction with  3 cut-off energies.
Calculating total energy with cut-off of 1590.000 eV.
------------------------------------------------------------------------ <-- SCF
SCF loop      Energy                           Energy gain       Timer   <-- SCF
                                               per atom          (sec)   <-- SCF
------------------------------------------------------------------------ <-- SCF
Initial   1.86281182E+002                                          4.79  <-- SCF
      1  -1.02183621E+002                    3.60581004E+001       5.86  <-- SCF
      2  -1.17923220E+002                    1.96744995E+000       6.63  <-- SCF
      3  -1.17744554E+002                   -2.23333220E-002       7.80  <-- SCF
      4  -1.17737288E+002                   -9.08170385E-004       8.99  <-- SCF
      5  -1.17737486E+002                    2.46714254E-005      10.14  <-- SCF
      6  -1.17737503E+002                    2.13409453E-006      11.32  <-- SCF
      7  -1.17737503E+002                    2.89869924E-009      12.50  <-- SCF
      8  -1.17737503E+002                    2.07055125E-010      13.43  <-- SCF
      9  -1.17737503E+002                    6.43185958E-012      14.27  <-- SCF
     10  -1.17737503E+002                    2.41685658E-014      15.12  <-- SCF
------------------------------------------------------------------------ <-- SCF
 
Final energy =  -117.7375028651     eV
(energy not corrected for finite basis set)
 
Calculating total energy with cut-off of 1595.000 eV.
------------------------------------------------------------------------ <-- SCF
SCF loop      Energy                           Energy gain       Timer   <-- SCF
                                               per atom          (sec)   <-- SCF
------------------------------------------------------------------------ <-- SCF
Initial  -1.17737503E+002                                         15.72  <-- SCF
      1  -1.17737524E+002                    2.63345202E-006      16.66  <-- SCF
      2  -1.17737524E+002                    2.01505418E-012      17.55  <-- SCF
      3  -1.17737524E+002                    5.80939817E-010      18.44  <-- SCF
      4  -1.17737524E+002                    3.27786174E-011      19.36  <-- SCF
      5  -1.17737524E+002                    4.47118468E-013      20.25  <-- SCF
      6  -1.17737524E+002                    3.20233497E-013      21.14  <-- SCF
------------------------------------------------------------------------ <-- SCF
 
Final energy =  -117.7375239376     eV
(energy not corrected for finite basis set)
 
Calculating total energy with cut-off of 1600.000 eV.
------------------------------------------------------------------------ <-- SCF
SCF loop      Energy                           Energy gain       Timer   <-- SCF
                                               per atom          (sec)   <-- SCF
------------------------------------------------------------------------ <-- SCF
Initial  -1.17737524E+002                                         21.75  <-- SCF
      1  -1.17737543E+002                    2.39723604E-006      22.69  <-- SCF
      2  -1.17737543E+002                    2.63135261E-012      23.58  <-- SCF
      3  -1.17737543E+002                    5.20385475E-010      24.47  <-- SCF
      4  -1.17737543E+002                    2.88149726E-011      25.42  <-- SCF
      5  -1.17737543E+002                    4.10865619E-013      26.32  <-- SCF
      6  -1.17737543E+002                    4.86392387E-013      27.22  <-- SCF
------------------------------------------------------------------------ <-- SCF
 
Final energy =  -117.7375431199     eV
(energy not corrected for finite basis set)
 
 For future reference: finite basis dEtot/dlog(Ecut) =      -0.006448eV
 Total energy corrected for finite basis set =    -117.737543 eV
 
+---------------- MEMORY AND SCRATCH DISK ESTIMATES PER PROCESS --------------+
|                                                     Memory          Disk    |
| Model and support data                               33.0 MB         0.0 MB |
| Electronic energy minimisation requirements          14.4 MB         0.0 MB |
| Geometry minimisation requirements                   19.2 MB         0.0 MB |
|                                               ----------------------------- |
| Approx. total storage required per process           66.6 MB         0.0 MB |
|                                                                             |
| Requirements will fluctuate during execution and may exceed these estimates |
+-----------------------------------------------------------------------------+
 

 ******************************** Symmetrised Forces ********************************
 *                                                                                  *
 *                           Cartesian components (eV/A)                            *
 * -------------------------------------------------------------------------------- *
 *                         x                    y                    z              *
 *                                                                                  *
 * H               1      0.00000             -0.00000             -0.00000         *
 * H               2      0.00000              0.00000             -0.00000         *
 * H               3      0.00000             -0.00000              0.00000         *
 * H               4      0.00000              0.00000              0.00000         *
 * H               5      0.00000             -0.00000             -0.00000         *
 * H               6      0.00000              0.00000             -0.00000         *
 * H               7      0.00000             -0.00000              0.00000         *
 * H               8      0.00000              0.00000              0.00000         *
 *                                                                                  *
 ************************************************************************************

 *********** Symmetrised Stress Tensor ***********
 *                                               *
 *          Cartesian components (GPa)           *
 * --------------------------------------------- *
 *             x             y             z     *
 *                                               *
 *  x   -169.998041      0.000000      0.000000  *
 *  y      0.000000   -169.998061      0.000000  *
 *  z      0.000000      0.000000   -169.998044  *
 *                                               *
 *  Pressure:  169.9980                          *
 *                                               *
 *************************************************
 LBFGS: finished iteration     0 with enthalpy= -1.03147848E+002 eV
  
 +-----------+-----------------+-----------------+------------+-----+ <-- LBFGS
 | Parameter |      value      |    tolerance    |    units   | OK? | <-- LBFGS
 +-----------+-----------------+-----------------+------------+-----+ <-- LBFGS
 |  dE/ion   |   0.000000E+000 |   1.000000E-009 |         eV | No  | <-- LBFGS
 |  |F|max   |   1.792789E-007 |   1.000000E-005 |       eV/A | Yes | <-- LBFGS
 |  |dR|max  |   0.000000E+000 |   1.000000E-005 |          A | No  | <-- LBFGS
 |   Smax    |   9.998061E+000 |   1.000000E-005 |        GPa | No  | <-- LBFGS
 +-----------+-----------------+-----------------+------------+-----+ <-- LBFGS
  

================================================================================
 Starting LBFGS iteration          1 ...
================================================================================
  
 +------------+-------------+-------------+-----------------+ <-- min LBFGS
 |    Step    |   lambda    |   F.delta'  |    enthalpy     | <-- min LBFGS
 +------------+-------------+-------------+-----------------+ <-- min LBFGS
 |  previous  |    0.000000 |    0.058030 |     -103.147848 | <-- min LBFGS
 +------------+-------------+-------------+-----------------+ <-- min LBFGS
  

--------------------------------------------------------------------------------
 LBFGS: starting iteration         1 with trial guess (lambda=  1.000000)
--------------------------------------------------------------------------------
 
+---------------- MEMORY AND SCRATCH DISK ESTIMATES PER PROCESS --------------+
|                                                     Memory          Disk    |
| Model and support data                               33.2 MB         0.0 MB |
| Electronic energy minimisation requirements          14.6 MB         0.0 MB |
| Geometry minimisation requirements                   19.4 MB         0.0 MB |
|                                               ----------------------------- |
| Approx. total storage required per process           67.2 MB         0.0 MB |
|                                                                             |
| Requirements will fluctuate during execution and may exceed these estimates |
+-----------------------------------------------------------------------------+
 

                           -------------------------------
                                      Unit Cell
                           -------------------------------
        Real Lattice(A)              Reciprocal Lattice(1/A)
     1.7896224     0.0000000     0.0000000        3.510900016  -0.000000000   0.000000000
     0.0000000     2.9922747     0.0000000       -0.000000000   2.099802272   0.000000000
     0.0000000     0.0000000     2.7831022        0.000000000   0.000000000   2.257619361

                       Lattice parameters(A)       Cell Angles
                    a =      1.789622          alpha =   90.000000
                    b =      2.992275          beta  =   90.000000
                    c =      2.783102          gamma =   90.000000

                Current cell volume =            14.903629 A**3

                           -------------------------------
                                     Cell Contents
                           -------------------------------

            xxxxxxxxxxxxxxxxxxxxxxxxxxxxxxxxxxxxxxxxxxxxxxxxxxxxxxxxxxxxxxxxx
            x  Element         Atom        Fractional coordinates of atoms  x
            x                 Number           u          v          w      x
            x---------------------------------------------------------------x
            x  H                 1         0.000000   0.380346   0.448144   x
            x  H                 2         0.000000   0.119654   0.948144   x
            x  H                 3         0.000000   0.880346   0.051856   x
            x  H                 4         0.000000   0.619654   0.551856   x
            x  H                 5         0.500000   0.880346   0.448144   x
            x  H                 6         0.500000   0.619654   0.948144   x
            x  H                 7         0.500000   0.380346   0.051856   x
            x  H                 8         0.500000   0.119654   0.551856   x
            xxxxxxxxxxxxxxxxxxxxxxxxxxxxxxxxxxxxxxxxxxxxxxxxxxxxxxxxxxxxxxxxx


------------------------------------------------------------------------ <-- SCF
SCF loop      Energy                           Energy gain       Timer   <-- SCF
                                               per atom          (sec)   <-- SCF
------------------------------------------------------------------------ <-- SCF
Initial  -1.18038082E+002                                         28.43  <-- SCF
      1  -1.18040569E+002                    3.10930105E-004      29.38  <-- SCF
      2  -1.18040583E+002                    1.68638806E-006      30.65  <-- SCF
      3  -1.18040553E+002                   -3.66568380E-006      31.90  <-- SCF
      4  -1.18040553E+002                   -7.63875075E-008      33.15  <-- SCF
      5  -1.18040553E+002                    4.96319022E-009      34.38  <-- SCF
      6  -1.18040553E+002                    4.68015214E-010      35.62  <-- SCF
      7  -1.18040553E+002                    1.14800688E-012      36.51  <-- SCF
      8  -1.18040553E+002                   -1.99390668E-013      37.41  <-- SCF
------------------------------------------------------------------------ <-- SCF
 
Final energy =  -118.0405529088     eV
(energy not corrected for finite basis set)
 

 ******************************** Symmetrised Forces ********************************
 *                                                                                  *
 *                           Cartesian components (eV/A)                            *
 * -------------------------------------------------------------------------------- *
 *                         x                    y                    z              *
 *                                                                                  *
 * H               1      0.00000              0.10155              0.04510         *
 * H               2      0.00000             -0.10155              0.04510         *
 * H               3      0.00000              0.10155             -0.04510         *
 * H               4      0.00000             -0.10155             -0.04510         *
 * H               5      0.00000              0.10155              0.04510         *
 * H               6      0.00000             -0.10155              0.04510         *
 * H               7      0.00000              0.10155             -0.04510         *
 * H               8      0.00000             -0.10155             -0.04510         *
 *                                                                                  *
 ************************************************************************************

 *********** Symmetrised Stress Tensor ***********
 *                                               *
 *          Cartesian components (GPa)           *
 * --------------------------------------------- *
 *             x             y             z     *
 *                                               *
 *  x   -161.482671      0.000000      0.000000  *
 *  y      0.000000   -157.950915      0.000000  *
 *  z      0.000000      0.000000   -161.395351  *
 *                                               *
 *  Pressure:  160.2763                          *
 *                                               *
 *************************************************
  
 +------------+-------------+-------------+-----------------+ <-- min LBFGS
 |    Step    |   lambda    |   F.delta'  |    enthalpy     | <-- min LBFGS
 +------------+-------------+-------------+-----------------+ <-- min LBFGS
 |  previous  |    0.000000 |    0.058030 |     -103.147848 | <-- min LBFGS
 | trial step |    1.000000 |    0.001625 |     -103.157171 | <-- min LBFGS
 +------------+-------------+-------------+-----------------+ <-- min LBFGS
  
 LBFGS: finished iteration     1 with enthalpy= -1.03157171E+002 eV
  
 +-----------+-----------------+-----------------+------------+-----+ <-- LBFGS
 | Parameter |      value      |    tolerance    |    units   | OK? | <-- LBFGS
 +-----------+-----------------+-----------------+------------+-----+ <-- LBFGS
 |  dE/ion   |   1.165466E-003 |   1.000000E-009 |         eV | No  | <-- LBFGS
 |  |F|max   |   1.111120E-001 |   1.000000E-005 |       eV/A | No  | <-- LBFGS
 |  |dR|max  |   1.750415E-008 |   1.000000E-005 |          A | Yes | <-- LBFGS
 |   Smax    |   2.049085E+000 |   1.000000E-005 |        GPa | No  | <-- LBFGS
 +-----------+-----------------+-----------------+------------+-----+ <-- LBFGS
  

================================================================================
 Starting LBFGS iteration          2 ...
================================================================================
  
 +------------+-------------+-------------+-----------------+ <-- min LBFGS
 |    Step    |   lambda    |   F.delta'  |    enthalpy     | <-- min LBFGS
 +------------+-------------+-------------+-----------------+ <-- min LBFGS
 |  previous  |    0.000000 |    0.030411 |     -103.157171 | <-- min LBFGS
 +------------+-------------+-------------+-----------------+ <-- min LBFGS
  

--------------------------------------------------------------------------------
 LBFGS: starting iteration         2 with trial guess (lambda=  1.000000)
--------------------------------------------------------------------------------
 
+---------------- MEMORY AND SCRATCH DISK ESTIMATES PER PROCESS --------------+
|                                                     Memory          Disk    |
| Model and support data                               33.3 MB         0.0 MB |
| Electronic energy minimisation requirements          14.8 MB         0.0 MB |
| Geometry minimisation requirements                   19.6 MB         0.0 MB |
|                                               ----------------------------- |
| Approx. total storage required per process           67.7 MB         0.0 MB |
|                                                                             |
| Requirements will fluctuate during execution and may exceed these estimates |
+-----------------------------------------------------------------------------+
 

                           -------------------------------
                                      Unit Cell
                           -------------------------------
        Real Lattice(A)              Reciprocal Lattice(1/A)
     1.7984817     0.0000000     0.0000000        3.493605321  -0.000000000   0.000000000
     0.0000000     2.9997911     0.0000000       -0.000000000   2.094540983   0.000000000
     0.0000000     0.0000000     2.7967118        0.000000000   0.000000000   2.246633105

                       Lattice parameters(A)       Cell Angles
                    a =      1.798482          alpha =   90.000000
                    b =      2.999791          beta  =   90.000000
                    c =      2.796712          gamma =   90.000000

                Current cell volume =            15.088454 A**3

                           -------------------------------
                                     Cell Contents
                           -------------------------------

            xxxxxxxxxxxxxxxxxxxxxxxxxxxxxxxxxxxxxxxxxxxxxxxxxxxxxxxxxxxxxxxxx
            x  Element         Atom        Fractional coordinates of atoms  x
            x                 Number           u          v          w      x
            x---------------------------------------------------------------x
            x  H                 1        -0.000000   0.383777   0.449782   x
            x  H                 2         0.000000   0.116223   0.949782   x
            x  H                 3        -0.000000   0.883777   0.050218   x
            x  H                 4         0.000000   0.616223   0.550218   x
            x  H                 5         0.500000   0.883777   0.449782   x
            x  H                 6         0.500000   0.616223   0.949782   x
            x  H                 7         0.500000   0.383777   0.050218   x
            x  H                 8         0.500000   0.116223   0.550218   x
            xxxxxxxxxxxxxxxxxxxxxxxxxxxxxxxxxxxxxxxxxxxxxxxxxxxxxxxxxxxxxxxxx


------------------------------------------------------------------------ <-- SCF
SCF loop      Energy                           Energy gain       Timer   <-- SCF
                                               per atom          (sec)   <-- SCF
------------------------------------------------------------------------ <-- SCF
Initial  -1.18113875E+002                                         38.66  <-- SCF
      1  -1.18225158E+002                    1.39104554E-002      39.71  <-- SCF
      2  -1.18225551E+002                    4.91281010E-005      40.96  <-- SCF
      3  -1.18218882E+002                   -8.33678409E-004      42.28  <-- SCF
      4  -1.18218562E+002                   -4.00485510E-005      43.62  <-- SCF
      5  -1.18218563E+002                    1.09540853E-007      44.85  <-- SCF
      6  -1.18218563E+002                    7.77292496E-009      46.09  <-- SCF
      7  -1.18218563E+002                    3.03919715E-011      47.01  <-- SCF
      8  -1.18218563E+002                    8.36836592E-013      47.96  <-- SCF
      9  -1.18218563E+002                    5.52855944E-013      48.85  <-- SCF
------------------------------------------------------------------------ <-- SCF
 
Final energy =  -118.2185626189     eV
(energy not corrected for finite basis set)
 

 ******************************** Symmetrised Forces ********************************
 *                                                                                  *
 *                           Cartesian components (eV/A)                            *
 * -------------------------------------------------------------------------------- *
 *                         x                    y                    z              *
 *                                                                                  *
 * H               1      0.00000             -0.25128             -0.10863         *
 * H               2     -0.00000              0.25128             -0.10863         *
 * H               3     -0.00000             -0.25128              0.10863         *
 * H               4     -0.00000              0.25128              0.10863         *
 * H               5      0.00000             -0.25128             -0.10863         *
 * H               6      0.00000              0.25128             -0.10863         *
 * H               7     -0.00000             -0.25128              0.10863         *
 * H               8     -0.00000              0.25128              0.10863         *
 *                                                                                  *
 ************************************************************************************

 *********** Symmetrised Stress Tensor ***********
 *                                               *
 *          Cartesian components (GPa)           *
 * --------------------------------------------- *
 *             x             y             z     *
 *                                               *
 *  x   -158.855227      0.000000      0.000000  *
 *  y      0.000000   -162.941435      0.000000  *
 *  z      0.000000      0.000000   -159.529155  *
 *                                               *
 *  Pressure:  160.4419                          *
 *                                               *
 *************************************************
  
 +------------+-------------+-------------+-----------------+ <-- min LBFGS
 |    Step    |   lambda    |   F.delta'  |    enthalpy     | <-- min LBFGS
 +------------+-------------+-------------+-----------------+ <-- min LBFGS
 |  previous  |    0.000000 |    0.030411 |     -103.157171 | <-- min LBFGS
 | trial step |    1.000000 |   -0.069465 |     -103.150607 | <-- min LBFGS
 +------------+-------------+-------------+-----------------+ <-- min LBFGS
  

--------------------------------------------------------------------------------
 LBFGS: improving iteration         2 with line minimization (lambda=  0.304483)
--------------------------------------------------------------------------------

                           -------------------------------
                                      Unit Cell
                           -------------------------------
        Real Lattice(A)              Reciprocal Lattice(1/A)
     1.7923199     0.0000000     0.0000000        3.505615967  -0.000000000   0.000000000
     0.0000000     2.9945633     0.0000000       -0.000000000   2.098197501   0.000000000
     0.0000000     0.0000000     2.7872461        0.000000000   0.000000000   2.254262869

                       Lattice parameters(A)       Cell Angles
                    a =      1.792320          alpha =   90.000000
                    b =      2.994563          beta  =   90.000000
                    c =      2.787246          gamma =   90.000000

                Current cell volume =            14.959750 A**3

                           -------------------------------
                                     Cell Contents
                           -------------------------------

            xxxxxxxxxxxxxxxxxxxxxxxxxxxxxxxxxxxxxxxxxxxxxxxxxxxxxxxxxxxxxxxxx
            x  Element         Atom        Fractional coordinates of atoms  x
            x                 Number           u          v          w      x
            x---------------------------------------------------------------x
            x  H                 1        -0.000000   0.381390   0.448643   x
            x  H                 2         0.000000   0.118610   0.948643   x
            x  H                 3        -0.000000   0.881390   0.051357   x
            x  H                 4         0.000000   0.618610   0.551357   x
            x  H                 5         0.500000   0.881390   0.448643   x
            x  H                 6         0.500000   0.618610   0.948643   x
            x  H                 7         0.500000   0.381390   0.051357   x
            x  H                 8         0.500000   0.118610   0.551357   x
            xxxxxxxxxxxxxxxxxxxxxxxxxxxxxxxxxxxxxxxxxxxxxxxxxxxxxxxxxxxxxxxxx


------------------------------------------------------------------------ <-- SCF
SCF loop      Energy                           Energy gain       Timer   <-- SCF
                                               per atom          (sec)   <-- SCF
------------------------------------------------------------------------ <-- SCF
Initial  -1.18046470E+002                                         50.00  <-- SCF
      1  -1.18101605E+002                    6.89191162E-003      50.98  <-- SCF
      2  -1.18101810E+002                    2.55536789E-005      52.21  <-- SCF
      3  -1.18098497E+002                   -4.14048578E-004      53.46  <-- SCF
      4  -1.18098339E+002                   -1.98257434E-005      54.72  <-- SCF
      5  -1.18098339E+002                    4.82927552E-008      55.95  <-- SCF
      6  -1.18098339E+002                    3.27185585E-009      57.21  <-- SCF
      7  -1.18098339E+002                    9.14780217E-012      58.12  <-- SCF
      8  -1.18098339E+002                    4.56181680E-013      59.10  <-- SCF
------------------------------------------------------------------------ <-- SCF
 
Final energy =  -118.0983392604     eV
(energy not corrected for finite basis set)
 

 ******************************** Symmetrised Forces ********************************
 *                                                                                  *
 *                           Cartesian components (eV/A)                            *
 * -------------------------------------------------------------------------------- *
 *                         x                    y                    z              *
 *                                                                                  *
 * H               1     -0.00000              0.00052              0.00097         *
 * H               2     -0.00000             -0.00052              0.00097         *
 * H               3      0.00000              0.00052             -0.00097         *
 * H               4      0.00000             -0.00052             -0.00097         *
 * H               5     -0.00000              0.00052              0.00097         *
 * H               6     -0.00000             -0.00052              0.00097         *
 * H               7      0.00000              0.00052             -0.00097         *
 * H               8      0.00000             -0.00052             -0.00097         *
 *                                                                                  *
 ************************************************************************************

 *********** Symmetrised Stress Tensor ***********
 *                                               *
 *          Cartesian components (GPa)           *
 * --------------------------------------------- *
 *             x             y             z     *
 *                                               *
 *  x   -160.562516      0.000000      0.000000  *
 *  y      0.000000   -159.417075      0.000000  *
 *  z      0.000000      0.000000   -160.740801  *
 *                                               *
 *  Pressure:  160.2401                          *
 *                                               *
 *************************************************
  
 +------------+-------------+-------------+-----------------+ <-- min LBFGS
 |    Step    |   lambda    |   F.delta'  |    enthalpy     | <-- min LBFGS
 +------------+-------------+-------------+-----------------+ <-- min LBFGS
 |  previous  |    0.000000 |    0.030411 |     -103.157171 | <-- min LBFGS
 | trial step |    1.000000 |   -0.069465 |     -103.150607 | <-- min LBFGS
 |  line step |    0.304483 |    0.001513 |     -103.158912 | <-- min LBFGS
 +------------+-------------+-------------+-----------------+ <-- min LBFGS
  
 LBFGS: finished iteration     2 with enthalpy= -1.03158912E+002 eV
  
 +-----------+-----------------+-----------------+------------+-----+ <-- LBFGS
 | Parameter |      value      |    tolerance    |    units   | OK? | <-- LBFGS
 +-----------+-----------------+-----------------+------------+-----+ <-- LBFGS
 |  dE/ion   |   2.176313E-004 |   1.000000E-009 |         eV | No  | <-- LBFGS
 |  |F|max   |   1.095251E-003 |   1.000000E-005 |       eV/A | No  | <-- LBFGS
 |  |dR|max  |   3.424057E-003 |   1.000000E-005 |          A | No  | <-- LBFGS
 |   Smax    |   7.408007E-001 |   1.000000E-005 |        GPa | No  | <-- LBFGS
 +-----------+-----------------+-----------------+------------+-----+ <-- LBFGS
  

================================================================================
 Starting LBFGS iteration          3 ...
================================================================================
  
 +------------+-------------+-------------+-----------------+ <-- min LBFGS
 |    Step    |   lambda    |   F.delta'  |    enthalpy     | <-- min LBFGS
 +------------+-------------+-------------+-----------------+ <-- min LBFGS
 |  previous  |    0.000000 |    0.003697 |     -103.158912 | <-- min LBFGS
 +------------+-------------+-------------+-----------------+ <-- min LBFGS
  

--------------------------------------------------------------------------------
 LBFGS: starting iteration         3 with trial guess (lambda=  1.000000)
--------------------------------------------------------------------------------

                           -------------------------------
                                      Unit Cell
                           -------------------------------
        Real Lattice(A)              Reciprocal Lattice(1/A)
     1.7931793     0.0000000     0.0000000        3.503935871  -0.000000000   0.000000000
     0.0000000     2.9936000     0.0000000       -0.000000000   2.098872696   0.000000000
     0.0000000     0.0000000     2.7889344        0.000000000   0.000000000   2.252898210

                       Lattice parameters(A)       Cell Angles
                    a =      1.793179          alpha =   90.000000
                    b =      2.993600          beta  =   90.000000
                    c =      2.788934          gamma =   90.000000

                Current cell volume =            14.971172 A**3

                           -------------------------------
                                     Cell Contents
                           -------------------------------

            xxxxxxxxxxxxxxxxxxxxxxxxxxxxxxxxxxxxxxxxxxxxxxxxxxxxxxxxxxxxxxxxx
            x  Element         Atom        Fractional coordinates of atoms  x
            x                 Number           u          v          w      x
            x---------------------------------------------------------------x
            x  H                 1        -0.000000   0.381396   0.448673   x
            x  H                 2        -0.000000   0.118604   0.948673   x
            x  H                 3        -0.000000   0.881396   0.051327   x
            x  H                 4         0.000000   0.618604   0.551327   x
            x  H                 5         0.500000   0.881396   0.448673   x
            x  H                 6         0.500000   0.618604   0.948673   x
            x  H                 7         0.500000   0.381396   0.051327   x
            x  H                 8         0.500000   0.118604   0.551327   x
            xxxxxxxxxxxxxxxxxxxxxxxxxxxxxxxxxxxxxxxxxxxxxxxxxxxxxxxxxxxxxxxxx


------------------------------------------------------------------------ <-- SCF
SCF loop      Energy                           Energy gain       Timer   <-- SCF
                                               per atom          (sec)   <-- SCF
------------------------------------------------------------------------ <-- SCF
Initial  -1.18109728E+002                                         60.26  <-- SCF
      1  -1.18109808E+002                    1.00192515E-005      61.27  <-- SCF
      2  -1.18109809E+002                    5.46907939E-008      62.51  <-- SCF
      3  -1.18109807E+002                   -1.63420154E-007      63.81  <-- SCF
      4  -1.18109807E+002                   -4.62502364E-009      65.07  <-- SCF
      5  -1.18109807E+002                    1.19365526E-010      65.99  <-- SCF
      6  -1.18109807E+002                    1.09483603E-011      66.88  <-- SCF
      7  -1.18109807E+002                    4.35034185E-013      67.77  <-- SCF
      8  -1.18109807E+002                   -1.51053536E-013      68.66  <-- SCF
------------------------------------------------------------------------ <-- SCF
 
Final energy =  -118.1098072312     eV
(energy not corrected for finite basis set)
 

 ******************************** Symmetrised Forces ********************************
 *                                                                                  *
 *                           Cartesian components (eV/A)                            *
 * -------------------------------------------------------------------------------- *
 *                         x                    y                    z              *
 *                                                                                  *
 * H               1      0.00000             -0.00146              0.00015         *
 * H               2      0.00000              0.00146              0.00015         *
 * H               3      0.00000             -0.00146             -0.00015         *
 * H               4      0.00000              0.00146             -0.00015         *
 * H               5      0.00000             -0.00146              0.00015         *
 * H               6      0.00000              0.00146              0.00015         *
 * H               7      0.00000             -0.00146             -0.00015         *
 * H               8      0.00000              0.00146             -0.00015         *
 *                                                                                  *
 ************************************************************************************

 *********** Symmetrised Stress Tensor ***********
 *                                               *
 *          Cartesian components (GPa)           *
 * --------------------------------------------- *
 *             x             y             z     *
 *                                               *
 *  x   -160.226516      0.000000      0.000000  *
 *  y      0.000000   -159.509900      0.000000  *
 *  z      0.000000      0.000000   -160.277978  *
 *                                               *
 *  Pressure:  160.0048                          *
 *                                               *
 *************************************************
  
 +------------+-------------+-------------+-----------------+ <-- min LBFGS
 |    Step    |   lambda    |   F.delta'  |    enthalpy     | <-- min LBFGS
 +------------+-------------+-------------+-----------------+ <-- min LBFGS
 |  previous  |    0.000000 |    0.003697 |     -103.158912 | <-- min LBFGS
 | trial step |    1.000000 |    0.001756 |     -103.158975 | <-- min LBFGS
 +------------+-------------+-------------+-----------------+ <-- min LBFGS
  

--------------------------------------------------------------------------------
 LBFGS: improving iteration         3 with line minimization (lambda=  1.904835)
--------------------------------------------------------------------------------

                           -------------------------------
                                      Unit Cell
                           -------------------------------
        Real Lattice(A)              Reciprocal Lattice(1/A)
     1.7939569     0.0000000     0.0000000        3.502417048  -0.000000000   0.000000000
     0.0000000     2.9927283     0.0000000       -0.000000000   2.099484011   0.000000000
     0.0000000     0.0000000     2.7904621        0.000000000   0.000000000   2.251664841

                       Lattice parameters(A)       Cell Angles
                    a =      1.793957          alpha =   90.000000
                    b =      2.992728          beta  =   90.000000
                    c =      2.790462          gamma =   90.000000

                Current cell volume =            14.981504 A**3

                           -------------------------------
                                     Cell Contents
                           -------------------------------

            xxxxxxxxxxxxxxxxxxxxxxxxxxxxxxxxxxxxxxxxxxxxxxxxxxxxxxxxxxxxxxxxx
            x  Element         Atom        Fractional coordinates of atoms  x
            x                 Number           u          v          w      x
            x---------------------------------------------------------------x
            x  H                 1        -0.000000   0.381401   0.448700   x
            x  H                 2        -0.000000   0.118599   0.948700   x
            x  H                 3        -0.000000   0.881401   0.051300   x
            x  H                 4         0.000000   0.618599   0.551300   x
            x  H                 5         0.500000   0.881401   0.448700   x
            x  H                 6         0.500000   0.618599   0.948700   x
            x  H                 7         0.500000   0.381401   0.051300   x
            x  H                 8         0.500000   0.118599   0.551300   x
            xxxxxxxxxxxxxxxxxxxxxxxxxxxxxxxxxxxxxxxxxxxxxxxxxxxxxxxxxxxxxxxxx


------------------------------------------------------------------------ <-- SCF
SCF loop      Energy                           Energy gain       Timer   <-- SCF
                                               per atom          (sec)   <-- SCF
------------------------------------------------------------------------ <-- SCF
Initial  -1.18120079E+002                                         69.81  <-- SCF
      1  -1.18120145E+002                    8.24051946E-006      70.79  <-- SCF
      2  -1.18120145E+002                    4.47114238E-008      72.06  <-- SCF
      3  -1.18120144E+002                   -1.34742437E-007      73.31  <-- SCF
      4  -1.18120144E+002                   -3.82226473E-009      74.57  <-- SCF
      5  -1.18120144E+002                    9.84869058E-011      75.56  <-- SCF
      6  -1.18120144E+002                    9.30791892E-012      76.44  <-- SCF
      7  -1.18120144E+002                    4.16907761E-013      77.33  <-- SCF
------------------------------------------------------------------------ <-- SCF
 
Final energy =  -118.1201438644     eV
(energy not corrected for finite basis set)
 

 ******************************** Symmetrised Forces ********************************
 *                                                                                  *
 *                           Cartesian components (eV/A)                            *
 * -------------------------------------------------------------------------------- *
 *                         x                    y                    z              *
 *                                                                                  *
 * H               1      0.00000             -0.00323             -0.00059         *
 * H               2      0.00000              0.00323             -0.00059         *
 * H               3      0.00000             -0.00323              0.00059         *
 * H               4      0.00000              0.00323              0.00059         *
 * H               5      0.00000             -0.00323             -0.00059         *
 * H               6      0.00000              0.00323             -0.00059         *
 * H               7      0.00000             -0.00323              0.00059         *
 * H               8      0.00000              0.00323              0.00059         *
 *                                                                                  *
 ************************************************************************************

 *********** Symmetrised Stress Tensor ***********
 *                                               *
 *          Cartesian components (GPa)           *
 * --------------------------------------------- *
 *             x             y             z     *
 *                                               *
 *  x   -159.926010      0.000000      0.000000  *
 *  y      0.000000   -159.592362      0.000000  *
 *  z      0.000000      0.000000   -159.860398  *
 *                                               *
 *  Pressure:  159.7929                          *
 *                                               *
 *************************************************
  
 +------------+-------------+-------------+-----------------+ <-- min LBFGS
 |    Step    |   lambda    |   F.delta'  |    enthalpy     | <-- min LBFGS
 +------------+-------------+-------------+-----------------+ <-- min LBFGS
 |  previous  |    0.000000 |    0.003697 |     -103.158912 | <-- min LBFGS
 | trial step |    1.000000 |    0.001756 |     -103.158975 | <-- min LBFGS
 |  line step |    1.904835 |    0.000011 |     -103.158992 | <-- min LBFGS
 +------------+-------------+-------------+-----------------+ <-- min LBFGS
  
 LBFGS: finished iteration     3 with enthalpy= -1.03158992E+002 eV
  
 +-----------+-----------------+-----------------+------------+-----+ <-- LBFGS
 | Parameter |      value      |    tolerance    |    units   | OK? | <-- LBFGS
 +-----------+-----------------+-----------------+------------+-----+ <-- LBFGS
 |  dE/ion   |   9.981048E-006 |   1.000000E-009 |         eV | No  | <-- LBFGS
 |  |F|max   |   3.281728E-003 |   1.000000E-005 |       eV/A | No  | <-- LBFGS
 |  |dR|max  |   1.620198E-004 |   1.000000E-005 |          A | No  | <-- LBFGS
 |   Smax    |   4.076378E-001 |   1.000000E-005 |        GPa | No  | <-- LBFGS
 +-----------+-----------------+-----------------+------------+-----+ <-- LBFGS
  

================================================================================
 Starting LBFGS iteration          4 ...
================================================================================
  
 +------------+-------------+-------------+-----------------+ <-- min LBFGS
 |    Step    |   lambda    |   F.delta'  |    enthalpy     | <-- min LBFGS
 +------------+-------------+-------------+-----------------+ <-- min LBFGS
 |  previous  |    0.000000 |    0.001687 |     -103.158992 | <-- min LBFGS
 +------------+-------------+-------------+-----------------+ <-- min LBFGS
  

--------------------------------------------------------------------------------
 LBFGS: starting iteration         4 with trial guess (lambda=  1.000000)
--------------------------------------------------------------------------------

                           -------------------------------
                                      Unit Cell
                           -------------------------------
        Real Lattice(A)              Reciprocal Lattice(1/A)
     1.7939771     0.0000000     0.0000000        3.502377692  -0.000000000   0.000000000
     0.0000000     2.9915302     0.0000000       -0.000000000   2.100324856   0.000000000
     0.0000000     0.0000000     2.7904383        0.000000000   0.000000000   2.251684029

                       Lattice parameters(A)       Cell Angles
                    a =      1.793977          alpha =   90.000000
                    b =      2.991530          beta  =   90.000000
                    c =      2.790438          gamma =   90.000000

                Current cell volume =            14.975547 A**3

                           -------------------------------
                                     Cell Contents
                           -------------------------------

            xxxxxxxxxxxxxxxxxxxxxxxxxxxxxxxxxxxxxxxxxxxxxxxxxxxxxxxxxxxxxxxxx
            x  Element         Atom        Fractional coordinates of atoms  x
            x                 Number           u          v          w      x
            x---------------------------------------------------------------x
            x  H                 1        -0.000000   0.381333   0.448702   x
            x  H                 2        -0.000000   0.118667   0.948702   x
            x  H                 3        -0.000000   0.881333   0.051298   x
            x  H                 4         0.000000   0.618667   0.551298   x
            x  H                 5         0.500000   0.881333   0.448702   x
            x  H                 6         0.500000   0.618667   0.948702   x
            x  H                 7         0.500000   0.381333   0.051298   x
            x  H                 8         0.500000   0.118667   0.551298   x
            xxxxxxxxxxxxxxxxxxxxxxxxxxxxxxxxxxxxxxxxxxxxxxxxxxxxxxxxxxxxxxxxx


------------------------------------------------------------------------ <-- SCF
SCF loop      Energy                           Energy gain       Timer   <-- SCF
                                               per atom          (sec)   <-- SCF
------------------------------------------------------------------------ <-- SCF
Initial  -1.18114175E+002                                         78.50  <-- SCF
      1  -1.18114209E+002                    4.30463426E-006      79.46  <-- SCF
      2  -1.18114209E+002                    2.36174802E-008      80.73  <-- SCF
      3  -1.18114208E+002                   -1.19395972E-007      81.98  <-- SCF
      4  -1.18114208E+002                   -5.36307726E-009      83.23  <-- SCF
      5  -1.18114208E+002                    3.39175611E-011      84.12  <-- SCF
      6  -1.18114208E+002                    2.68573188E-012      85.01  <-- SCF
      7  -1.18114208E+002                    4.41076327E-013      85.90  <-- SCF
------------------------------------------------------------------------ <-- SCF
 
Final energy =  -118.1142082995     eV
(energy not corrected for finite basis set)
 

 ******************************** Symmetrised Forces ********************************
 *                                                                                  *
 *                           Cartesian components (eV/A)                            *
 * -------------------------------------------------------------------------------- *
 *                         x                    y                    z              *
 *                                                                                  *
 * H               1     -0.00000             -0.00090              0.00034         *
 * H               2     -0.00000              0.00090              0.00034         *
 * H               3      0.00000             -0.00090             -0.00034         *
 * H               4     -0.00000              0.00090             -0.00034         *
 * H               5     -0.00000             -0.00090              0.00034         *
 * H               6     -0.00000              0.00090              0.00034         *
 * H               7      0.00000             -0.00090             -0.00034         *
 * H               8     -0.00000              0.00090             -0.00034         *
 *                                                                                  *
 ************************************************************************************

 *********** Symmetrised Stress Tensor ***********
 *                                               *
 *          Cartesian components (GPa)           *
 * --------------------------------------------- *
 *             x             y             z     *
 *                                               *
 *  x   -160.018925      0.000000      0.000000  *
 *  y      0.000000   -159.878631      0.000000  *
 *  z      0.000000      0.000000   -159.918999  *
 *                                               *
 *  Pressure:  159.9389                          *
 *                                               *
 *************************************************
  
 +------------+-------------+-------------+-----------------+ <-- min LBFGS
 |    Step    |   lambda    |   F.delta'  |    enthalpy     | <-- min LBFGS
 +------------+-------------+-------------+-----------------+ <-- min LBFGS
 |  previous  |    0.000000 |    0.001687 |     -103.158992 | <-- min LBFGS
 | trial step |    1.000000 |    0.000502 |     -103.159006 | <-- min LBFGS
 +------------+-------------+-------------+-----------------+ <-- min LBFGS
  

--------------------------------------------------------------------------------
 LBFGS: improving iteration         4 with line minimization (lambda=  1.424025)
--------------------------------------------------------------------------------

                           -------------------------------
                                      Unit Cell
                           -------------------------------
        Real Lattice(A)              Reciprocal Lattice(1/A)
     1.7939856     0.0000000     0.0000000        3.502361005  -0.000000000   0.000000000
     0.0000000     2.9910222     0.0000000       -0.000000000   2.100681599   0.000000000
     0.0000000     0.0000000     2.7904282        0.000000000   0.000000000   2.251692165

                       Lattice parameters(A)       Cell Angles
                    a =      1.793986          alpha =   90.000000
                    b =      2.991022          beta  =   90.000000
                    c =      2.790428          gamma =   90.000000

                Current cell volume =            14.973022 A**3

                           -------------------------------
                                     Cell Contents
                           -------------------------------

            xxxxxxxxxxxxxxxxxxxxxxxxxxxxxxxxxxxxxxxxxxxxxxxxxxxxxxxxxxxxxxxxx
            x  Element         Atom        Fractional coordinates of atoms  x
            x                 Number           u          v          w      x
            x---------------------------------------------------------------x
            x  H                 1        -0.000000   0.381304   0.448703   x
            x  H                 2        -0.000000   0.118696   0.948703   x
            x  H                 3        -0.000000   0.881304   0.051297   x
            x  H                 4         0.000000   0.618696   0.551297   x
            x  H                 5         0.500000   0.881304   0.448703   x
            x  H                 6         0.500000   0.618696   0.948703   x
            x  H                 7         0.500000   0.381304   0.051297   x
            x  H                 8         0.500000   0.118696   0.551297   x
            xxxxxxxxxxxxxxxxxxxxxxxxxxxxxxxxxxxxxxxxxxxxxxxxxxxxxxxxxxxxxxxxx


------------------------------------------------------------------------ <-- SCF
SCF loop      Energy                           Energy gain       Timer   <-- SCF
                                               per atom          (sec)   <-- SCF
------------------------------------------------------------------------ <-- SCF
Initial  -1.18111681E+002                                         87.05  <-- SCF
      1  -1.18111687E+002                    7.73339332E-007      87.99  <-- SCF
      2  -1.18111687E+002                    4.22310644E-009      89.26  <-- SCF
      3  -1.18111687E+002                   -2.14144762E-008      90.68  <-- SCF
      4  -1.18111687E+002                   -9.61238243E-010      91.93  <-- SCF
      5  -1.18111687E+002                    5.88504578E-012      92.82  <-- SCF
      6  -1.18111687E+002                    8.70068370E-013      93.70  <-- SCF
------------------------------------------------------------------------ <-- SCF
 
Final energy =  -118.1116871881     eV
(energy not corrected for finite basis set)
 

 ******************************** Symmetrised Forces ********************************
 *                                                                                  *
 *                           Cartesian components (eV/A)                            *
 * -------------------------------------------------------------------------------- *
 *                         x                    y                    z              *
 *                                                                                  *
 * H               1     -0.00000              0.00009              0.00073         *
 * H               2      0.00000             -0.00009              0.00073         *
 * H               3     -0.00000              0.00009             -0.00073         *
 * H               4      0.00000             -0.00009             -0.00073         *
 * H               5      0.00000              0.00009              0.00073         *
 * H               6     -0.00000             -0.00009              0.00073         *
 * H               7      0.00000              0.00009             -0.00073         *
 * H               8     -0.00000             -0.00009             -0.00073         *
 *                                                                                  *
 ************************************************************************************

 *********** Symmetrised Stress Tensor ***********
 *                                               *
 *          Cartesian components (GPa)           *
 * --------------------------------------------- *
 *             x             y             z     *
 *                                               *
 *  x   -160.058439     -0.000000      0.000000  *
 *  y     -0.000000   -160.000253      0.000000  *
 *  z      0.000000      0.000000   -159.943876  *
 *                                               *
 *  Pressure:  160.0009                          *
 *                                               *
 *************************************************
  
 +------------+-------------+-------------+-----------------+ <-- min LBFGS
 |    Step    |   lambda    |   F.delta'  |    enthalpy     | <-- min LBFGS
 +------------+-------------+-------------+-----------------+ <-- min LBFGS
 |  previous  |    0.000000 |    0.001687 |     -103.158992 | <-- min LBFGS
 | trial step |    1.000000 |    0.000502 |     -103.159006 | <-- min LBFGS
 |  line step |    1.424025 | -2.568E-007 |     -103.159007 | <-- min LBFGS
 +------------+-------------+-------------+-----------------+ <-- min LBFGS
  
 LBFGS: finished iteration     4 with enthalpy= -1.03159007E+002 eV
  
 +-----------+-----------------+-----------------+------------+-----+ <-- LBFGS
 | Parameter |      value      |    tolerance    |    units   | OK? | <-- LBFGS
 +-----------+-----------------+-----------------+------------+-----+ <-- LBFGS
 |  dE/ion   |   1.865077E-006 |   1.000000E-009 |         eV | No  | <-- LBFGS
 |  |F|max   |   7.392571E-004 |   1.000000E-005 |       eV/A | No  | <-- LBFGS
 |  |dR|max  |   2.898943E-004 |   1.000000E-005 |          A | No  | <-- LBFGS
 |   Smax    |   5.843875E-002 |   1.000000E-005 |        GPa | No  | <-- LBFGS
 +-----------+-----------------+-----------------+------------+-----+ <-- LBFGS
  

================================================================================
 Starting LBFGS iteration          5 ...
================================================================================
  
 +------------+-------------+-------------+-----------------+ <-- min LBFGS
 |    Step    |   lambda    |   F.delta'  |    enthalpy     | <-- min LBFGS
 +------------+-------------+-------------+-----------------+ <-- min LBFGS
 |  previous  |    0.000000 |    0.000323 |     -103.159007 | <-- min LBFGS
 +------------+-------------+-------------+-----------------+ <-- min LBFGS
  

--------------------------------------------------------------------------------
 LBFGS: starting iteration         5 with trial guess (lambda=  1.000000)
--------------------------------------------------------------------------------

                           -------------------------------
                                      Unit Cell
                           -------------------------------
        Real Lattice(A)              Reciprocal Lattice(1/A)
     1.7940614     0.0000000     0.0000000        3.502213179  -0.000000000   0.000000000
     0.0000000     2.9909968     0.0000000       -0.000000000   2.100699462   0.000000000
     0.0000000     0.0000000     2.7903309        0.000000000   0.000000000   2.251770679

                       Lattice parameters(A)       Cell Angles
                    a =      1.794061          alpha =   90.000000
                    b =      2.990997          beta  =   90.000000
                    c =      2.790331          gamma =   90.000000

                Current cell volume =            14.973004 A**3

                           -------------------------------
                                     Cell Contents
                           -------------------------------

            xxxxxxxxxxxxxxxxxxxxxxxxxxxxxxxxxxxxxxxxxxxxxxxxxxxxxxxxxxxxxxxxx
            x  Element         Atom        Fractional coordinates of atoms  x
            x                 Number           u          v          w      x
            x---------------------------------------------------------------x
            x  H                 1        -0.000000   0.381296   0.448726   x
            x  H                 2         0.000000   0.118704   0.948726   x
            x  H                 3         0.000000   0.881296   0.051274   x
            x  H                 4        -0.000000   0.618704   0.551274   x
            x  H                 5         0.500000   0.881296   0.448726   x
            x  H                 6         0.500000   0.618704   0.948726   x
            x  H                 7         0.500000   0.381296   0.051274   x
            x  H                 8         0.500000   0.118704   0.551274   x
            xxxxxxxxxxxxxxxxxxxxxxxxxxxxxxxxxxxxxxxxxxxxxxxxxxxxxxxxxxxxxxxxx


------------------------------------------------------------------------ <-- SCF
SCF loop      Energy                           Energy gain       Timer   <-- SCF
                                               per atom          (sec)   <-- SCF
------------------------------------------------------------------------ <-- SCF
Initial  -1.18111669E+002                                         94.92  <-- SCF
      1  -1.18111670E+002                    2.36835924E-007      95.85  <-- SCF
      2  -1.18111670E+002                    1.44598113E-009      97.11  <-- SCF
      3  -1.18111670E+002                    4.22162611E-009      98.32  <-- SCF
      4  -1.18111671E+002                    3.04726341E-010      99.21  <-- SCF
      5  -1.18111671E+002                    2.38664588E-012     100.10  <-- SCF
      6  -1.18111671E+002                   -3.74612770E-013     100.99  <-- SCF
------------------------------------------------------------------------ <-- SCF
 
Final energy =  -118.1116705020     eV
(energy not corrected for finite basis set)
 

 ******************************** Symmetrised Forces ********************************
 *                                                                                  *
 *                           Cartesian components (eV/A)                            *
 * -------------------------------------------------------------------------------- *
 *                         x                    y                    z              *
 *                                                                                  *
 * H               1      0.00000             -0.00015              0.00052         *
 * H               2     -0.00000              0.00015              0.00052         *
 * H               3      0.00000             -0.00015             -0.00052         *
 * H               4      0.00000              0.00015             -0.00052         *
 * H               5      0.00000             -0.00015              0.00052         *
 * H               6      0.00000              0.00015              0.00052         *
 * H               7      0.00000             -0.00015             -0.00052         *
 * H               8     -0.00000              0.00015             -0.00052         *
 *                                                                                  *
 ************************************************************************************

 *********** Symmetrised Stress Tensor ***********
 *                                               *
 *          Cartesian components (GPa)           *
 * --------------------------------------------- *
 *             x             y             z     *
 *                                               *
 *  x   -160.041547      0.000000      0.000000  *
 *  y      0.000000   -160.009063      0.000000  *
 *  z      0.000000      0.000000   -159.966234  *
 *                                               *
 *  Pressure:  160.0056                          *
 *                                               *
 *************************************************
  
 +------------+-------------+-------------+-----------------+ <-- min LBFGS
 |    Step    |   lambda    |   F.delta'  |    enthalpy     | <-- min LBFGS
 +------------+-------------+-------------+-----------------+ <-- min LBFGS
 |  previous  |    0.000000 |    0.000323 |     -103.159007 | <-- min LBFGS
 | trial step |    1.000000 |    0.000232 |     -103.159008 | <-- min LBFGS
 +------------+-------------+-------------+-----------------+ <-- min LBFGS
  

--------------------------------------------------------------------------------
 LBFGS: improving iteration         5 with line minimization (lambda=  3.562634)
--------------------------------------------------------------------------------

                           -------------------------------
                                      Unit Cell
                           -------------------------------
        Real Lattice(A)              Reciprocal Lattice(1/A)
     1.7942554     0.0000000     0.0000000        3.501834413  -0.000000000   0.000000000
     0.0000000     2.9909316     0.0000000       -0.000000000   2.100745240   0.000000000
     0.0000000     0.0000000     2.7900816        0.000000000   0.000000000   2.251971907

                       Lattice parameters(A)       Cell Angles
                    a =      1.794255          alpha =   90.000000
                    b =      2.990932          beta  =   90.000000
[...]
            x  H                 1         0.000000   0.381251   0.448837   x
            x  H                 2         0.000000   0.118749   0.948837   x
            x  H                 3         0.000000   0.881251   0.051163   x
            x  H                 4        -0.000000   0.618749   0.551163   x
            x  H                 5         0.500000   0.881251   0.448837   x
            x  H                 6         0.500000   0.618749   0.948837   x
            x  H                 7         0.500000   0.381251   0.051163   x
            x  H                 8         0.500000   0.118749   0.551163   x
            xxxxxxxxxxxxxxxxxxxxxxxxxxxxxxxxxxxxxxxxxxxxxxxxxxxxxxxxxxxxxxxxx


------------------------------------------------------------------------ <-- SCF
SCF loop      Energy                           Energy gain       Timer   <-- SCF
                                               per atom          (sec)   <-- SCF
------------------------------------------------------------------------ <-- SCF
Initial  -1.18111943E+002                                        138.77  <-- SCF
      1  -1.18111943E+002                    9.19916037E-012     139.38  <-- SCF
      2  -1.18111943E+002                    4.41076327E-013     140.28  <-- SCF
      3  -1.18111943E+002                   -6.64635561E-014     141.17  <-- SCF
      4  -1.18111943E+002                    9.96953341E-014     142.07  <-- SCF
------------------------------------------------------------------------ <-- SCF
 
Final energy =  -118.1119425945     eV
(energy not corrected for finite basis set)
 

 ******************************** Symmetrised Forces ********************************
 *                                                                                  *
 *                           Cartesian components (eV/A)                            *
 * -------------------------------------------------------------------------------- *
 *                         x                    y                    z              *
 *                                                                                  *
 * H               1      0.00000              0.00000              0.00000         *
 * H               2      0.00000             -0.00000              0.00000         *
 * H               3      0.00000              0.00000             -0.00000         *
 * H               4      0.00000             -0.00000             -0.00000         *
 * H               5      0.00000              0.00000              0.00000         *
 * H               6      0.00000             -0.00000              0.00000         *
 * H               7      0.00000              0.00000             -0.00000         *
 * H               8      0.00000             -0.00000             -0.00000         *
 *                                                                                  *
 ************************************************************************************

 *********** Symmetrised Stress Tensor ***********
 *                                               *
 *          Cartesian components (GPa)           *
 * --------------------------------------------- *
 *             x             y             z     *
 *                                               *
 *  x   -160.000031      0.000000      0.000000  *
 *  y      0.000000   -159.999967      0.000000  *
 *  z      0.000000      0.000000   -160.000013  *
 *                                               *
 *  Pressure:  160.0000                          *
 *                                               *
 *************************************************
  
 +------------+-------------+-------------+-----------------+ <-- min LBFGS
 |    Step    |   lambda    |   F.delta'  |    enthalpy     | <-- min LBFGS
 +------------+-------------+-------------+-----------------+ <-- min LBFGS
 |  previous  |    0.000000 |  2.315E-006 |     -103.159009 | <-- min LBFGS
 | trial step |    1.000000 |  8.443E-008 |     -103.159009 | <-- min LBFGS
 +------------+-------------+-------------+-----------------+ <-- min LBFGS
  
 LBFGS: finished iteration     8 with enthalpy= -1.03159009E+002 eV
  
 +-----------+-----------------+-----------------+------------+-----+ <-- LBFGS
 | Parameter |      value      |    tolerance    |    units   | OK? | <-- LBFGS
 +-----------+-----------------+-----------------+------------+-----+ <-- LBFGS
 |  dE/ion   |   2.042244E-012 |   1.000000E-009 |         eV | Yes | <-- LBFGS
 |  |F|max   |   6.974522E-007 |   1.000000E-005 |       eV/A | Yes | <-- LBFGS
 |  |dR|max  |   3.193880E-007 |   1.000000E-005 |          A | Yes | <-- LBFGS
 |   Smax    |   3.251102E-005 |   1.000000E-005 |        GPa | No  | <-- LBFGS
 +-----------+-----------------+-----------------+------------+-----+ <-- LBFGS
  

================================================================================
 Starting LBFGS iteration          9 ...
================================================================================
  
 +------------+-------------+-------------+-----------------+ <-- min LBFGS
 |    Step    |   lambda    |   F.delta'  |    enthalpy     | <-- min LBFGS
 +------------+-------------+-------------+-----------------+ <-- min LBFGS
 |  previous  |    0.000000 |  1.489E-007 |     -103.159009 | <-- min LBFGS
 +------------+-------------+-------------+-----------------+ <-- min LBFGS
  

--------------------------------------------------------------------------------
 LBFGS: starting iteration         9 with trial guess (lambda=  1.000000)
--------------------------------------------------------------------------------

                           -------------------------------
                                      Unit Cell
                           -------------------------------
        Real Lattice(A)              Reciprocal Lattice(1/A)
     1.7942132     0.0000000     0.0000000        3.501916784  -0.000000000   0.000000000
     0.0000000     2.9909763     0.0000000       -0.000000000   2.100713863   0.000000000
     0.0000000     0.0000000     2.7901646        0.000000000   0.000000000   2.251904892

                       Lattice parameters(A)       Cell Angles
                    a =      1.794213          alpha =   90.000000
                    b =      2.990976          beta  =   90.000000
                    c =      2.790165          gamma =   90.000000

                Current cell volume =            14.973276 A**3

                           -------------------------------
                                     Cell Contents
                           -------------------------------

            xxxxxxxxxxxxxxxxxxxxxxxxxxxxxxxxxxxxxxxxxxxxxxxxxxxxxxxxxxxxxxxxx
            x  Element         Atom        Fractional coordinates of atoms  x
            x                 Number           u          v          w      x
            x---------------------------------------------------------------x
            x  H                 1         0.000000   0.381251   0.448837   x
            x  H                 2         0.000000   0.118749   0.948837   x
            x  H                 3         0.000000   0.881251   0.051163   x
            x  H                 4        -0.000000   0.618749   0.551163   x
            x  H                 5         0.500000   0.881251   0.448837   x
            x  H                 6         0.500000   0.618749   0.948837   x
            x  H                 7         0.500000   0.381251   0.051163   x
            x  H                 8         0.500000   0.118749   0.551163   x
            xxxxxxxxxxxxxxxxxxxxxxxxxxxxxxxxxxxxxxxxxxxxxxxxxxxxxxxxxxxxxxxxx


------------------------------------------------------------------------ <-- SCF
SCF loop      Energy                           Energy gain       Timer   <-- SCF
                                               per atom          (sec)   <-- SCF
------------------------------------------------------------------------ <-- SCF
Initial  -1.18111943E+002                                        143.26  <-- SCF
      1  -1.18111943E+002                    1.29906041E-012     143.86  <-- SCF
      2  -1.18111943E+002                    5.43792731E-014     144.75  <-- SCF
      3  -1.18111943E+002                    1.41990324E-013     145.65  <-- SCF
      4  -1.18111943E+002                    6.34424853E-014     146.54  <-- SCF
------------------------------------------------------------------------ <-- SCF
 
Final energy =  -118.1119432912     eV
(energy not corrected for finite basis set)
 

 ******************************** Symmetrised Forces ********************************
 *                                                                                  *
 *                           Cartesian components (eV/A)                            *
 * -------------------------------------------------------------------------------- *
 *                         x                    y                    z              *
 *                                                                                  *
 * H               1      0.00000             -0.00000             -0.00000         *
 * H               2     -0.00000              0.00000             -0.00000         *
 * H               3      0.00000             -0.00000              0.00000         *
 * H               4     -0.00000              0.00000              0.00000         *
 * H               5      0.00000             -0.00000             -0.00000         *
 * H               6      0.00000              0.00000             -0.00000         *
 * H               7      0.00000             -0.00000              0.00000         *
 * H               8     -0.00000              0.00000              0.00000         *
 *                                                                                  *
 ************************************************************************************

 *********** Symmetrised Stress Tensor ***********
 *                                               *
 *          Cartesian components (GPa)           *
 * --------------------------------------------- *
 *             x             y             z     *
 *                                               *
 *  x   -160.000000     -0.000000      0.000000  *
 *  y     -0.000000   -160.000005      0.000000  *
 *  z      0.000000      0.000000   -160.000004  *
 *                                               *
 *  Pressure:  160.0000                          *
 *                                               *
 *************************************************
  
 +------------+-------------+-------------+-----------------+ <-- min LBFGS
 |    Step    |   lambda    |   F.delta'  |    enthalpy     | <-- min LBFGS
 +------------+-------------+-------------+-----------------+ <-- min LBFGS
 |  previous  |    0.000000 |  1.489E-007 |     -103.159009 | <-- min LBFGS
 | trial step |    1.000000 | -2.358E-008 |     -103.159009 | <-- min LBFGS
 +------------+-------------+-------------+-----------------+ <-- min LBFGS
  
 LBFGS: finished iteration     9 with enthalpy= -1.03159009E+002 eV
  
 +-----------+-----------------+-----------------+------------+-----+ <-- LBFGS
 | Parameter |      value      |    tolerance    |    units   | OK? | <-- LBFGS
 +-----------+-----------------+-----------------+------------+-----+ <-- LBFGS
 |  dE/ion   |   9.969533E-014 |   1.000000E-009 |         eV | Yes | <-- LBFGS
 |  |F|max   |   9.062935E-008 |   1.000000E-005 |       eV/A | Yes | <-- LBFGS
 |  |dR|max  |   1.606508E-007 |   1.000000E-005 |          A | Yes | <-- LBFGS
 |   Smax    |   4.654437E-006 |   1.000000E-005 |        GPa | Yes | <-- LBFGS
 +-----------+-----------------+-----------------+------------+-----+ <-- LBFGS
  
 LBFGS: Geometry optimization completed successfully.

================================================================================
 LBFGS: Final Configuration:
================================================================================

                           -------------------------------
                                      Unit Cell
                           -------------------------------
        Real Lattice(A)              Reciprocal Lattice(1/A)
     1.7942132     0.0000000     0.0000000        3.501916784  -0.000000000   0.000000000
     0.0000000     2.9909763     0.0000000       -0.000000000   2.100713863   0.000000000
     0.0000000     0.0000000     2.7901646        0.000000000   0.000000000   2.251904892

                       Lattice parameters(A)       Cell Angles
                    a =      1.794213          alpha =   90.000000
                    b =      2.990976          beta  =   90.000000
                    c =      2.790165          gamma =   90.000000

                Current cell volume =            14.973276 A**3

                           -------------------------------
                                     Cell Contents
                           -------------------------------

            xxxxxxxxxxxxxxxxxxxxxxxxxxxxxxxxxxxxxxxxxxxxxxxxxxxxxxxxxxxxxxxxx
            x  Element         Atom        Fractional coordinates of atoms  x
            x                 Number           u          v          w      x
            x---------------------------------------------------------------x
            x  H                 1         0.000000   0.381251   0.448837   x
            x  H                 2         0.000000   0.118749   0.948837   x
            x  H                 3         0.000000   0.881251   0.051163   x
            x  H                 4        -0.000000   0.618749   0.551163   x
            x  H                 5         0.500000   0.881251   0.448837   x
            x  H                 6         0.500000   0.618749   0.948837   x
            x  H                 7         0.500000   0.381251   0.051163   x
            x  H                 8         0.500000   0.118749   0.551163   x
            xxxxxxxxxxxxxxxxxxxxxxxxxxxxxxxxxxxxxxxxxxxxxxxxxxxxxxxxxxxxxxxxx


 LBFGS: Final Enthalpy     = -1.03159009E+002 eV
 LBFGS: Final <frequency>  =     644.87844 cm-1
 LBFGS: Final bulk modulus =     387.39552 GPa

 ******************************** Symmetrised Forces ********************************
 *                                                                                  *
 *                           Cartesian components (eV/A)                            *
 * -------------------------------------------------------------------------------- *
 *                         x                    y                    z              *
 *                                                                                  *
 * H               1      0.00000             -0.00000             -0.00000         *
 * H               2     -0.00000              0.00000             -0.00000         *
 * H               3      0.00000             -0.00000              0.00000         *
 * H               4     -0.00000              0.00000              0.00000         *
 * H               5      0.00000             -0.00000             -0.00000         *
 * H               6      0.00000              0.00000             -0.00000         *
 * H               7      0.00000             -0.00000              0.00000         *
 * H               8     -0.00000              0.00000              0.00000         *
 *                                                                                  *
 ************************************************************************************

 *********** Symmetrised Stress Tensor ***********
 *                                               *
 *          Cartesian components (GPa)           *
 * --------------------------------------------- *
 *             x             y             z     *
 *                                               *
 *  x   -160.000000     -0.000000      0.000000  *
 *  y     -0.000000   -160.000005      0.000000  *
 *  z      0.000000      0.000000   -160.000004  *
 *                                               *
 *  Pressure:  160.0000                          *
 *                                               *
 *************************************************

 Pseudo atomic calculation performed for H 1s1

 Converged in 24 iterations to a total energy of -12.4855 eV

Charge spilling parameter for spin component 1 = 0.56%

            Orbital Populations       
     Ion    Atom   Orbital             Charge
  -------------------------------------------
      H     1      S                    0.996
      H     2      S                    1.004
      H     3      S                    1.004
      H     4      S                    0.996
      H     5      S                    0.996
      H     6      S                    1.004
      H     7      S                    1.004
      H     8      S                    0.996
  -------------------------------------------
                           Total:       8.000
  -------------------------------------------

     Atomic Populations (Mulliken)
     -----------------------------
Species          Ion     s      p      d      f     Total  Charge (e)
=====================================================================
  H               1     1.00   0.00   0.00   0.00   1.00     0.00
  H               2     1.00   0.00   0.00   0.00   1.00     0.00
  H               3     1.00   0.00   0.00   0.00   1.00     0.00
  H               4     1.00   0.00   0.00   0.00   1.00     0.00
  H               5     1.00   0.00   0.00   0.00   1.00     0.00
  H               6     1.00   0.00   0.00   0.00   1.00     0.00
  H               7     1.00   0.00   0.00   0.00   1.00     0.00
  H               8     1.00   0.00   0.00   0.00   1.00     0.00
=====================================================================

                 Bond                   Population      Length (A)
======================================================================
               H 2 -- H 3                    1.09        0.76558
               H 5 -- H 8                    1.09        0.76558
               H 6 -- H 7                    1.09        0.76558
               H 1 -- H 4                    1.09        0.76558
               H 3 -- H 6                    0.20        1.22587
               H 4 -- H 5                    0.20        1.22587
               H 2 -- H 7                    0.20        1.22587
               H 1 -- H 8                    0.20        1.22587
               H 3 -- H 5                   -0.13        1.42687
               H 1 -- H 7                   -0.13        1.42687
               H 4 -- H 6                   -0.13        1.42687
               H 2 -- H 8                   -0.13        1.42687
               H 5 -- H 6                   -0.15        1.60084
               H 1 -- H 2                   -0.15        1.60084
               H 3 -- H 4                   -0.15        1.60084
               H 7 -- H 8                   -0.15        1.60084
               H 4 -- H 8                   -0.62        1.74393
               H 2 -- H 6                   -0.62        1.74393
               H 3 -- H 7                   -0.62        1.74393
               H 1 -- H 5                   -0.62        1.74393
======================================================================


Writing analysis data to Cmca4.castep_bin

Writing model to Cmca4.check
 
 A BibTeX formatted list of references used in this run has been written to 
 Cmca4.bib
 
Initialisation time =      4.30 s
Calculation time    =    144.55 s
Finalisation time   =      4.77 s
Total time          =    153.62 s
Peak Memory Use     = 542336 kB
  
Overall parallel efficiency rating: Excellent (91%)                             
  
Data was distributed by:-
k-point (32-way); efficiency rating: Excellent (92%)                            
  
Parallel notes:
1) Calculation only took 148.9 s, so efficiency estimates may be inaccurate.    
