 +-------------------------------------------------+
 |                                                 |
 |      CCC   AA    SSS  TTTTT  EEEEE  PPPP        |
 |     C     A  A  S       T    E      P   P       |
 |     C     AAAA   SS     T    EEE    PPPP        |
 |     C     A  A     S    T    E      P           |
 |      CCC  A  A  SSS     T    EEEEE  P           |
 |                                                 |
 +-------------------------------------------------+
 |                                                 |
 | Welcome to Academic Release CASTEP version 18.1 |          
 | Ab Initio Total Energy Program                  |
 |                                                 |
 | Authors:                                        |
 | M. Segall, M. Probert, C. Pickard, P. Hasnip,   |
 | S. Clark, K. Refson, J. R. Yates, M. Payne      |
 |                                                 |
 | Contributors:                                   |
 | P. Lindan, P. Haynes, J. White, V. Milman,      |
 | N. Govind, M. Gibson, P. Tulip, V. Cocula,      |
 | B. Montanari, D. Quigley, M. Glover,            |
 | L. Bernasconi, A. Perlov, M. Plummer,           |
 | E. McNellis, J. Meyer, J. Gale, D. Jochym       |
 | J. Aarons, B. Walker, R. Gillen, D. Jones       |
 | T. Green, I. J. Bush, C. J. Armstrong,          |
 | E. J. Higgins, E. L. Brown, M. S. McFly,        |
 | J. Wilkins, B-C. Shih, P. J. P. Byrne           |
 |                                                 |
 | Copyright (c) 2000 - 2017                       |
 |                                                 |
 |     Distributed under the terms of an           |
 |     Agreement between the United Kingdom        |
 |     Car-Parrinello (UKCP) Consortium,           |
 |     Daresbury Laboratory and Accelrys, Inc.     |
 |                                                 |
 | Please cite                                     |
 |                                                 |
 |     "First principles methods using CASTEP"     |
 |                                                 |
 |         Zeitschrift fuer Kristallographie       |
 |           220(5-6) pp. 567-570 (2005)           |
 |                                                 |
 | S. J. Clark, M. D. Segall, C. J. Pickard,       |
 | P. J. Hasnip, M. J. Probert, K. Refson,         |
 | M. C. Payne                                     |
 |                                                 |
 |       in all publications arising from          |
 |              your use of CASTEP                 |
 |                                                 |
 +-------------------------------------------------+


 Compiled for linux_x86_64_gfortran4.8 on Thu, 19 Jul 2018 15:42:32 +0100
 from code version 70483bd0ad64+  Sun, 10 Dec 2017 12:18:29 +0000
 Compiler: GNU Fortran 4.8.5; Optimisation: fast
 MATHLIBS: Intel MKL(2018.0.0) (LAPACK version 3.7.0)
 FFT Lib : mkl
 Fundamental constants values: CODATA 2014

 Run started: Thu, 27 Aug 2020 11:57:33 +0100

 Atomic calculation performed for H: 1s1

 Converged in 41 iterations to an ae energy of -12.488 eV

   ============================================================                
   | Pseudopotential Report - Date of generation 27-08-2020   |                
   ------------------------------------------------------------                
   | Element: H Ionic charge:  1.00 Level of theory: PBE      |                
   | Atomic Solver: Koelling-Harmon                           |                
   |                                                          |                
   |               Reference Electronic Structure             |                
   |         Orbital         Occupation         Energy        |                
   |            1s              1.000           -0.239        |                
   |                                                          |                
   |                 Pseudopotential Definition               |                
   |        Beta     l      e      Rc     scheme   norm       |                
   |         loc     0   -0.239   0.702     qc      1         |                
   |                                                          |                
   | No charge augmentation                                   |                
   | No partial core correction                               |                
   ------------------------------------------------------------                
   | "0|0.7|2|6|8|10L(qc=10)"                                 |                
   ------------------------------------------------------------                
   |      Author: Chris J. Pickard, Cambridge University      |                
   ============================================================                

 Pseudo atomic calculation performed for H 1s1

 Converged in 24 iterations to a total energy of -12.4855 eV

 Calculation parallelised over 32 processes.
 Data is distributed by k-point(32-way)

 ************************************ Title ************************************
 

 ***************************** General Parameters ******************************
  
 output verbosity                               : normal  (1)
 write checkpoint data to                       : Cmca4.check
 type of calculation                            : geometry optimization
 stress calculation                             : on
 density difference calculation                 : off
 electron localisation func (ELF) calculation   : off
 Hirshfeld analysis                             : off
 unlimited duration calculation
 timing information                             : on
 memory usage estimate                          : on
 write extra output files                       : on
 write final potential to formatted file        : off
 write final density to formatted file          : off
 write structure in CELL formatted file         : on
 write BibTeX reference list                    : on
 write OTFG pseudopotential files               : on
 write electrostatic potential file             : on
 write bands file                               : on
 checkpoint writing                             : both castep_bin and check files
  
 output         length unit                     : A
 output           mass unit                     : amu
 output           time unit                     : ps
 output         charge unit                     : e
 output           spin unit                     : hbar/2
 output         energy unit                     : eV
 output          force unit                     : eV/A
 output       velocity unit                     : A/ps
 output       pressure unit                     : GPa
 output     inv_length unit                     : 1/A
 output      frequency unit                     : cm-1
 output force constant unit                     : eV/A**2
 output         volume unit                     : A**3
 output   IR intensity unit                     : (D/A)**2/amu
 output         dipole unit                     : D
 output         efield unit                     : eV/A/e
 output        entropy unit                     : J/mol/K
  
 wavefunctions paging                           : none
 random number generator seed                   : randomised (115734566)
 data distribution                              : optimal for this architecture
 optimization strategy                          : maximize speed(+++)

 *********************** Exchange-Correlation Parameters ***********************
  
 using functional                               : Perdew Burke Ernzerhof
 relativistic treatment                         : Koelling-Harmon
 DFT+D: Semi-empirical dispersion correction    : off

 ************************* Pseudopotential Parameters **************************
  
 pseudopotential representation                 : reciprocal space
 <beta|phi> representation                      : reciprocal space
 spin-orbit coupling                            : off

 **************************** Basis Set Parameters *****************************
  
 plane wave basis set cut-off                   :  1600.0000   eV
 size of standard grid                          :     2.0000
 size of   fine   gmax                          :    40.9853   1/A
 finite basis set correction                    : automatic
 number of sample energies                      :          3
           sample  spacing                      :     5.0000   eV

 **************************** Electronic Parameters ****************************
  
 number of  electrons                           :  8.000    
 net charge of system                           :  0.000    
 treating system as non-spin-polarized
 number of bands                                :          4

 ********************* Electronic Minimization Parameters **********************
  
 Method: Treating system as non-metallic,
         and number of  SD  steps               :          1
         and number of  CG  steps               :          4
  
 total energy / atom convergence tol.           : 0.1000E-10   eV
 eigen-energy convergence tolerance             : 0.2000E-10   eV
 max force / atom convergence tol.              : ignored
 convergence tolerance window                   :          3   cycles
 max. number of SCF cycles                      :        100
 periodic dipole correction                     : NONE

 ************************** Density Mixing Parameters **************************
  
 density-mixing scheme                          : Broyden
 max. length of mixing history                  :         20
 charge density mixing amplitude                : 0.8000    
 cut-off energy for mixing                      :  1600.       eV

 *********************** Population Analysis Parameters ************************
  
 Population analysis with cutoff                :  3.000       A
 Population analysis output                     : summary and pdos components

 ********************** Geometry Optimization Parameters ***********************
  
 optimization method                            : LBFGS
 max. no. of LBFGS updates                      : unbounded
 variable cell method                           : fixed basis quality
 max. number of steps                           :        200
 estimated bulk modulus                         :  500.0       GPa
 estimated <frequency>                          :  1668.       cm-1
 geom line minimiser                            : on
 with line minimiser tolerance                  :     0.4000
 total energy convergence tolerance             : 0.1000E-08   eV/atom
        max ionic |force| tolerance             : 0.1000E-04   eV/A
 max ionic |displacement| tolerance             : 0.1000E-04   A
   max |stress component| tolerance             : 0.1000E-04   GPa
 convergence tolerance window                   :          2   steps
 backup results every                           :      14400   seconds
 write geom trajectory file                     : on

 *******************************************************************************
  

                           -------------------------------
                                      Unit Cell
                           -------------------------------
        Real Lattice(A)                      Reciprocal Lattice(1/A)
     2.0660201     0.0000000     0.0000000        3.041202468  -0.000000000   0.000000000
     0.0000000     3.1578264     0.0000000       -0.000000000   1.989718413   0.000000000
     0.0000000     0.0000000     3.0963433        0.000000000   0.000000000   2.029227579

                       Lattice parameters(A)       Cell Angles
                    a =      2.066020          alpha =   90.000000
                    b =      3.157826          beta  =   90.000000
                    c =      3.096343          gamma =   90.000000

                       Current cell volume =            20.200955       A**3
                                   density =             0.399165   AMU/A**3
                                           =             0.662830     g/cm^3

                           -------------------------------
                                     Cell Contents
                           -------------------------------
                         Total number of ions in cell =    8
                      Total number of species in cell =    1
                        Max number of any one species =    8

            xxxxxxxxxxxxxxxxxxxxxxxxxxxxxxxxxxxxxxxxxxxxxxxxxxxxxxxxxxxx
            x  Element    Atom        Fractional coordinates of atoms  x
            x            Number           u          v          w      x
            x----------------------------------------------------------x
            x  H            1         0.000000   0.400236   0.437892   x 
            x  H            2         0.000000   0.099764   0.937892   x 
            x  H            3         0.000000   0.900236   0.062108   x 
            x  H            4         0.000000   0.599764   0.562108   x 
            x  H            5         0.500000   0.900236   0.437892   x 
            x  H            6         0.500000   0.599764   0.937892   x 
            x  H            7         0.500000   0.400236   0.062108   x 
            x  H            8         0.500000   0.099764   0.562108   x 
            xxxxxxxxxxxxxxxxxxxxxxxxxxxxxxxxxxxxxxxxxxxxxxxxxxxxxxxxxxxx


                         No user defined ionic velocities

                           -------------------------------
                                   Details of Species
                           -------------------------------

                               Mass of species in AMU
                                    H    1.0079400

                          Electric Quadrupole Moment (Barn)
                                    H    0.0028600 Isotope  2

                          Files used for pseudopotentials:
                                    H 0|0.7|2|6|8|10L(qc=10)

                           -------------------------------
                              k-Points For BZ Sampling
                           -------------------------------
                       MP grid size for SCF calculation is 18 18 18
                            with an offset of   0.000  0.000  0.000
                       Number of kpoints used =           729

                           -------------------------------
                               Symmetry and Constraints
                           -------------------------------

                      Cell is a supercell containing 2 primitive cells
                      Maximum deviation from symmetry = 0.324295E-14     ANG

                      Number of symmetry operations   =          16
                      Number of ionic constraints     =           3
                      Point group of crystal =     8: D2h, mmm, 2/m 2/m 2/m
                      Space group of crystal =    64: Cmce, -C 2bc 2

             Set iprint > 1 for details on symmetry rotations/translations

                         Centre of mass is constrained
             Set iprint > 1 for details of linear ionic constraints

                         Number of cell constraints= 3
                         Cell constraints are:  1 2 3 0 0 0

                         External pressure/stress (GPa)
                         70.00000   0.00000   0.00000
                                   70.00000   0.00000
                                             70.00000
  
+---------------- MEMORY AND SCRATCH DISK ESTIMATES PER PROCESS --------------+
|                                                     Memory          Disk    |
| Baseline code, static data and system overhead      479.0 MB         0.0 MB |
| BLAS internal memory storage                          0.0 MB         0.0 MB |
| Model and support data                               30.1 MB         0.0 MB |
| Electronic energy minimisation requirements          20.0 MB         0.0 MB |
| Force calculation requirements                        6.3 MB         0.0 MB |
| Stress calculation requirements                       7.9 MB         0.0 MB |
|                                               ----------------------------- |
| Approx. total storage required per process          529.2 MB         0.0 MB |
|                                                                             |
| Requirements will fluctuate during execution and may exceed these estimates |
+-----------------------------------------------------------------------------+
Calculating finite basis set correction with  3 cut-off energies.
Calculating total energy with cut-off of 1590.000 eV.
------------------------------------------------------------------------ <-- SCF
SCF loop      Energy                           Energy gain       Timer   <-- SCF
                                               per atom          (sec)   <-- SCF
------------------------------------------------------------------------ <-- SCF
Initial   2.01091180E+002                                          4.94  <-- SCF
      1  -1.00420863E+002                    3.76890055E+001       6.83  <-- SCF
      2  -1.22342994E+002                    2.74026636E+000       8.20  <-- SCF
      3  -1.22432901E+002                    1.12383048E-002       9.30  <-- SCF
      4  -1.21809427E+002                   -7.79341971E-002      11.31  <-- SCF
      5  -1.21788888E+002                   -2.56743601E-003      13.30  <-- SCF
      6  -1.21789584E+002                    8.70619192E-005      15.26  <-- SCF
      7  -1.21789654E+002                    8.67413991E-006      17.26  <-- SCF
      8  -1.21789654E+002                    1.38332321E-008      19.36  <-- SCF
      9  -1.21789654E+002                    7.24800184E-010      21.31  <-- SCF
     10  -1.21789654E+002                    1.04800944E-011      22.75  <-- SCF
     11  -1.21789654E+002                    6.01193075E-013      24.25  <-- SCF
     12  -1.21789654E+002                   -3.02107073E-014      25.70  <-- SCF
------------------------------------------------------------------------ <-- SCF
 
Final energy =  -121.7896536435     eV
(energy not corrected for finite basis set)
 
Calculating total energy with cut-off of 1595.000 eV.
------------------------------------------------------------------------ <-- SCF
SCF loop      Energy                           Energy gain       Timer   <-- SCF
                                               per atom          (sec)   <-- SCF
------------------------------------------------------------------------ <-- SCF
Initial  -1.21789654E+002                                         26.63  <-- SCF
      1  -1.21789668E+002                    1.76100573E-006      28.13  <-- SCF
      2  -1.21789668E+002                    2.34435089E-012      29.56  <-- SCF
      3  -1.21789668E+002                    5.52683742E-010      30.98  <-- SCF
      4  -1.21789668E+002                    3.31048931E-011      32.57  <-- SCF
      5  -1.21789668E+002                    1.29603934E-012      34.03  <-- SCF
      6  -1.21789668E+002                    1.63137819E-013      35.54  <-- SCF
------------------------------------------------------------------------ <-- SCF
 
Final energy =  -121.7896677362     eV
(energy not corrected for finite basis set)
 
Calculating total energy with cut-off of 1600.000 eV.
------------------------------------------------------------------------ <-- SCF
SCF loop      Energy                           Energy gain       Timer   <-- SCF
                                               per atom          (sec)   <-- SCF
------------------------------------------------------------------------ <-- SCF
Initial  -1.21789668E+002                                         36.49  <-- SCF
      1  -1.21789681E+002                    1.63548395E-006      37.98  <-- SCF
      2  -1.21789681E+002                    2.65250010E-012      39.49  <-- SCF
      3  -1.21789681E+002                    5.14322186E-010      40.93  <-- SCF
      4  -1.21789681E+002                    3.07756475E-011      42.42  <-- SCF
      5  -1.21789681E+002                    1.89119028E-012      43.85  <-- SCF
      6  -1.21789681E+002                   -1.45011395E-013      45.28  <-- SCF
------------------------------------------------------------------------ <-- SCF
 
Final energy =  -121.7896808244     eV
(energy not corrected for finite basis set)
 
 For future reference: finite basis dEtot/dlog(Ecut) =      -0.004341eV
 Total energy corrected for finite basis set =    -121.789681 eV
 
+---------------- MEMORY AND SCRATCH DISK ESTIMATES PER PROCESS --------------+
|                                                     Memory          Disk    |
| Model and support data                               38.6 MB         0.0 MB |
| Electronic energy minimisation requirements          20.0 MB         0.0 MB |
| Geometry minimisation requirements                   26.2 MB         0.0 MB |
|                                               ----------------------------- |
| Approx. total storage required per process           84.8 MB         0.0 MB |
|                                                                             |
| Requirements will fluctuate during execution and may exceed these estimates |
+-----------------------------------------------------------------------------+
 

 ******************************** Symmetrised Forces ********************************
 *                                                                                  *
 *                           Cartesian components (eV/A)                            *
 * -------------------------------------------------------------------------------- *
 *                         x                    y                    z              *
 *                                                                                  *
 * H               1     -0.00000              0.00000              0.00000         *
 * H               2      0.00000             -0.00000              0.00000         *
 * H               3     -0.00000              0.00000             -0.00000         *
 * H               4     -0.00000             -0.00000             -0.00000         *
 * H               5     -0.00000              0.00000              0.00000         *
 * H               6      0.00000             -0.00000              0.00000         *
 * H               7     -0.00000              0.00000             -0.00000         *
 * H               8     -0.00000             -0.00000             -0.00000         *
 *                                                                                  *
 ************************************************************************************

 *********** Symmetrised Stress Tensor ***********
 *                                               *
 *          Cartesian components (GPa)           *
 * --------------------------------------------- *
 *             x             y             z     *
 *                                               *
 *  x    -79.996534      0.000000      0.000000  *
 *  y      0.000000    -79.996492      0.000000  *
 *  z      0.000000      0.000000    -79.996523  *
 *                                               *
 *  Pressure:   79.9965                          *
 *                                               *
 *************************************************
 LBFGS: finished iteration     0 with enthalpy= -1.12963770E+002 eV
  
 +-----------+-----------------+-----------------+------------+-----+ <-- LBFGS
 | Parameter |      value      |    tolerance    |    units   | OK? | <-- LBFGS
 +-----------+-----------------+-----------------+------------+-----+ <-- LBFGS
 |  dE/ion   |   0.000000E+000 |   1.000000E-009 |         eV | No  | <-- LBFGS
 |  |F|max   |   8.021452E-007 |   1.000000E-005 |       eV/A | Yes | <-- LBFGS
 |  |dR|max  |   0.000000E+000 |   1.000000E-005 |          A | No  | <-- LBFGS
 |   Smax    |   9.996534E+000 |   1.000000E-005 |        GPa | No  | <-- LBFGS
 +-----------+-----------------+-----------------+------------+-----+ <-- LBFGS
  

================================================================================
 Starting LBFGS iteration          1 ...
================================================================================
  
 +------------+-------------+-------------+-----------------+ <-- min LBFGS
 |    Step    |   lambda    |   F.delta'  |    enthalpy     | <-- min LBFGS
 +------------+-------------+-------------+-----------------+ <-- min LBFGS
 |  previous  |    0.000000 |    0.080227 |     -112.963770 | <-- min LBFGS
 +------------+-------------+-------------+-----------------+ <-- min LBFGS
  

--------------------------------------------------------------------------------
 LBFGS: starting iteration         1 with trial guess (lambda=  1.000000)
--------------------------------------------------------------------------------
 
+---------------- MEMORY AND SCRATCH DISK ESTIMATES PER PROCESS --------------+
|                                                     Memory          Disk    |
| Model and support data                               39.9 MB         0.0 MB |
| Electronic energy minimisation requirements          20.9 MB         0.0 MB |
| Geometry minimisation requirements                   27.2 MB         0.0 MB |
|                                               ----------------------------- |
| Approx. total storage required per process           87.9 MB         0.0 MB |
|                                                                             |
| Requirements will fluctuate during execution and may exceed these estimates |
+-----------------------------------------------------------------------------+
 

                           -------------------------------
                                      Unit Cell
                           -------------------------------
        Real Lattice(A)              Reciprocal Lattice(1/A)
     2.0797888     0.0000000     0.0000000        3.021068989  -0.000000000   0.000000000
     0.0000000     3.1788712     0.0000000       -0.000000000   1.976546061   0.000000000
     0.0000000     0.0000000     3.1169785        0.000000000   0.000000000   2.015793628

                       Lattice parameters(A)       Cell Angles
                    a =      2.079789          alpha =   90.000000
                    b =      3.178871          beta  =   90.000000
                    c =      3.116978          gamma =   90.000000

                Current cell volume =            20.607531 A**3

                           -------------------------------
                                     Cell Contents
                           -------------------------------

            xxxxxxxxxxxxxxxxxxxxxxxxxxxxxxxxxxxxxxxxxxxxxxxxxxxxxxxxxxxxxxxxx
            x  Element         Atom        Fractional coordinates of atoms  x
            x                 Number           u          v          w      x
            x---------------------------------------------------------------x
            x  H                 1        -0.000000   0.400236   0.437892   x
            x  H                 2        -0.000000   0.099764   0.937892   x
            x  H                 3         0.000000   0.900236   0.062108   x
            x  H                 4         0.000000   0.599764   0.562108   x
            x  H                 5         0.500000   0.900236   0.437892   x
            x  H                 6         0.500000   0.599764   0.937892   x
            x  H                 7         0.500000   0.400236   0.062108   x
            x  H                 8         0.500000   0.099764   0.562108   x
            xxxxxxxxxxxxxxxxxxxxxxxxxxxxxxxxxxxxxxxxxxxxxxxxxxxxxxxxxxxxxxxxx


------------------------------------------------------------------------ <-- SCF
SCF loop      Energy                           Energy gain       Timer   <-- SCF
                                               per atom          (sec)   <-- SCF
------------------------------------------------------------------------ <-- SCF
Initial  -1.21983181E+002                                         47.08  <-- SCF
      1  -1.21986268E+002                    3.85863768E-004      48.72  <-- SCF
      2  -1.21986280E+002                    1.52523864E-006      50.87  <-- SCF
      3  -1.21986130E+002                   -1.87646228E-005      52.99  <-- SCF
      4  -1.21986126E+002                   -5.47793834E-007      55.10  <-- SCF
      5  -1.21986126E+002                    1.93160193E-008      57.20  <-- SCF
      6  -1.21986126E+002                    1.90095438E-009      59.31  <-- SCF
      7  -1.21986126E+002                    5.32614770E-012      60.85  <-- SCF
      8  -1.21986126E+002                    3.38359922E-013      62.38  <-- SCF
------------------------------------------------------------------------ <-- SCF
 
Final energy =  -121.9861256821     eV
(energy not corrected for finite basis set)
 

 ******************************** Symmetrised Forces ********************************
 *                                                                                  *
 *                           Cartesian components (eV/A)                            *
 * -------------------------------------------------------------------------------- *
 *                         x                    y                    z              *
 *                                                                                  *
 * H               1      0.00000              0.12924              0.07836         *
 * H               2     -0.00000             -0.12924              0.07836         *
 * H               3     -0.00000              0.12924             -0.07836         *
 * H               4     -0.00000             -0.12924             -0.07836         *
 * H               5      0.00000              0.12924              0.07836         *
 * H               6     -0.00000             -0.12924              0.07836         *
 * H               7     -0.00000              0.12924             -0.07836         *
 * H               8     -0.00000             -0.12924             -0.07836         *
 *                                                                                  *
 ************************************************************************************

 *********** Symmetrised Stress Tensor ***********
 *                                               *
 *          Cartesian components (GPa)           *
 * --------------------------------------------- *
 *             x             y             z     *
 *                                               *
 *  x    -76.141853      0.000000      0.000000  *
 *  y      0.000000    -73.281786      0.000000  *
 *  z      0.000000      0.000000    -75.244075  *
 *                                               *
 *  Pressure:   74.8892                          *
 *                                               *
 *************************************************
  
 +------------+-------------+-------------+-----------------+ <-- min LBFGS
 |    Step    |   lambda    |   F.delta'  |    enthalpy     | <-- min LBFGS
 +------------+-------------+-------------+-----------------+ <-- min LBFGS
 |  previous  |    0.000000 |    0.080227 |     -112.963770 | <-- min LBFGS
 | trial step |    1.000000 |    0.039764 |     -112.982579 | <-- min LBFGS
 +------------+-------------+-------------+-----------------+ <-- min LBFGS
  

--------------------------------------------------------------------------------
 LBFGS: improving iteration         1 with line minimization (lambda=  1.982706)
--------------------------------------------------------------------------------
 
+---------------- MEMORY AND SCRATCH DISK ESTIMATES PER PROCESS --------------+
|                                                     Memory          Disk    |
| Model and support data                               40.1 MB         0.0 MB |
| Electronic energy minimisation requirements          21.1 MB         0.0 MB |
| Geometry minimisation requirements                   27.5 MB         0.0 MB |
|                                               ----------------------------- |
| Approx. total storage required per process           88.8 MB         0.0 MB |
|                                                                             |
| Requirements will fluctuate during execution and may exceed these estimates |
+-----------------------------------------------------------------------------+
 

                           -------------------------------
                                      Unit Cell
                           -------------------------------
        Real Lattice(A)              Reciprocal Lattice(1/A)
     2.0933193     0.0000000     0.0000000        3.001541719  -0.000000000   0.000000000
     0.0000000     3.1995520     0.0000000       -0.000000000   1.963770322   0.000000000
     0.0000000     0.0000000     3.1372567        0.000000000   0.000000000   2.002764167

                       Lattice parameters(A)       Cell Angles
                    a =      2.093319          alpha =   90.000000
                    b =      3.199552          beta  =   90.000000
                    c =      3.137257          gamma =   90.000000

                Current cell volume =            21.012354 A**3

                           -------------------------------
                                     Cell Contents
                           -------------------------------

            xxxxxxxxxxxxxxxxxxxxxxxxxxxxxxxxxxxxxxxxxxxxxxxxxxxxxxxxxxxxxxxxx
            x  Element         Atom        Fractional coordinates of atoms  x
            x                 Number           u          v          w      x
            x---------------------------------------------------------------x
            x  H                 1        -0.000000   0.400236   0.437892   x
            x  H                 2        -0.000000   0.099764   0.937892   x
            x  H                 3         0.000000   0.900236   0.062108   x
            x  H                 4         0.000000   0.599764   0.562108   x
            x  H                 5         0.500000   0.900236   0.437892   x
            x  H                 6         0.500000   0.599764   0.937892   x
            x  H                 7         0.500000   0.400236   0.062108   x
            x  H                 8         0.500000   0.099764   0.562108   x
            xxxxxxxxxxxxxxxxxxxxxxxxxxxxxxxxxxxxxxxxxxxxxxxxxxxxxxxxxxxxxxxxx


------------------------------------------------------------------------ <-- SCF
SCF loop      Energy                           Energy gain       Timer   <-- SCF
                                               per atom          (sec)   <-- SCF
------------------------------------------------------------------------ <-- SCF
Initial  -1.22166455E+002                                         64.23  <-- SCF
      1  -1.22169407E+002                    3.69025061E-004      65.87  <-- SCF
      2  -1.22169418E+002                    1.43538559E-006      68.00  <-- SCF
      3  -1.22169273E+002                   -1.82268225E-005      70.10  <-- SCF
      4  -1.22169268E+002                   -5.26945011E-007      72.24  <-- SCF
      5  -1.22169269E+002                    1.93451968E-008      74.34  <-- SCF
      6  -1.22169269E+002                    1.91874546E-009      76.44  <-- SCF
      7  -1.22169269E+002                    4.94851386E-012      77.98  <-- SCF
      8  -1.22169269E+002                    4.74308105E-013      79.59  <-- SCF
------------------------------------------------------------------------ <-- SCF
 
Final energy =  -122.1692686331     eV
(energy not corrected for finite basis set)
 

 ******************************** Symmetrised Forces ********************************
 *                                                                                  *
 *                           Cartesian components (eV/A)                            *
 * -------------------------------------------------------------------------------- *
 *                         x                    y                    z              *
 *                                                                                  *
 * H               1     -0.00000              0.25324              0.15343         *
 * H               2      0.00000             -0.25324              0.15343         *
 * H               3      0.00000              0.25324             -0.15343         *
 * H               4     -0.00000             -0.25324             -0.15343         *
 * H               5     -0.00000              0.25324              0.15343         *
 * H               6      0.00000             -0.25324              0.15343         *
 * H               7      0.00000              0.25324             -0.15343         *
 * H               8     -0.00000             -0.25324             -0.15343         *
 *                                                                                  *
 ************************************************************************************

 *********** Symmetrised Stress Tensor ***********
 *                                               *
 *          Cartesian components (GPa)           *
 * --------------------------------------------- *
 *             x             y             z     *
 *                                               *
 *  x    -72.560748      0.000000      0.000000  *
 *  y      0.000000    -67.019395      0.000000  *
 *  z      0.000000      0.000000    -70.821468  *
 *                                               *
 *  Pressure:   70.1339                          *
 *                                               *
 *************************************************
  
 +------------+-------------+-------------+-----------------+ <-- min LBFGS
 |    Step    |   lambda    |   F.delta'  |    enthalpy     | <-- min LBFGS
 +------------+-------------+-------------+-----------------+ <-- min LBFGS
 |  previous  |    0.000000 |    0.080227 |     -112.963770 | <-- min LBFGS
 | trial step |    1.000000 |    0.039764 |     -112.982579 | <-- min LBFGS
 |  line step |    1.982706 |    0.001104 |     -112.988853 | <-- min LBFGS
 +------------+-------------+-------------+-----------------+ <-- min LBFGS
  
 LBFGS: finished iteration     1 with enthalpy= -1.12988853E+002 eV
  
 +-----------+-----------------+-----------------+------------+-----+ <-- LBFGS
 | Parameter |      value      |    tolerance    |    units   | OK? | <-- LBFGS
 +-----------+-----------------+-----------------+------------+-----+ <-- LBFGS
 |  dE/ion   |   3.135347E-003 |   1.000000E-009 |         eV | No  | <-- LBFGS
 |  |F|max   |   2.960924E-001 |   1.000000E-005 |       eV/A | No  | <-- LBFGS
 |  |dR|max  |   1.562929E-007 |   1.000000E-005 |          A | Yes | <-- LBFGS
 |   Smax    |   2.980605E+000 |   1.000000E-005 |        GPa | No  | <-- LBFGS
 +-----------+-----------------+-----------------+------------+-----+ <-- LBFGS
  

================================================================================
 Starting LBFGS iteration          2 ...
================================================================================
  
 +------------+-------------+-------------+-----------------+ <-- min LBFGS
 |    Step    |   lambda    |   F.delta'  |    enthalpy     | <-- min LBFGS
 +------------+-------------+-------------+-----------------+ <-- min LBFGS
 |  previous  |    0.000000 |    0.062412 |     -112.988853 | <-- min LBFGS
 +------------+-------------+-------------+-----------------+ <-- min LBFGS
  

--------------------------------------------------------------------------------
 LBFGS: starting iteration         2 with trial guess (lambda=  1.000000)
--------------------------------------------------------------------------------
 
+---------------- MEMORY AND SCRATCH DISK ESTIMATES PER PROCESS --------------+
|                                                     Memory          Disk    |
| Model and support data                               41.0 MB         0.0 MB |
| Electronic energy minimisation requirements          22.1 MB         0.0 MB |
| Geometry minimisation requirements                   28.8 MB         0.0 MB |
|                                               ----------------------------- |
| Approx. total storage required per process           91.9 MB         0.0 MB |
|                                                                             |
| Requirements will fluctuate during execution and may exceed these estimates |
+-----------------------------------------------------------------------------+
 

                           -------------------------------
                                      Unit Cell
                           -------------------------------
        Real Lattice(A)              Reciprocal Lattice(1/A)
     2.1372078     0.0000000     0.0000000        2.939903789  -0.000000000   0.000000000
     0.0000000     3.2544904     0.0000000       -0.000000000   1.930620347   0.000000000
     0.0000000     0.0000000     3.1992951        0.000000000   0.000000000   1.963928041

                       Lattice parameters(A)       Cell Angles
                    a =      2.137208          alpha =   90.000000
                    b =      3.254490          beta  =   90.000000
                    c =      3.199295          gamma =   90.000000

                Current cell volume =            22.252768 A**3

                           -------------------------------
                                     Cell Contents
                           -------------------------------

            xxxxxxxxxxxxxxxxxxxxxxxxxxxxxxxxxxxxxxxxxxxxxxxxxxxxxxxxxxxxxxxxx
            x  Element         Atom        Fractional coordinates of atoms  x
            x                 Number           u          v          w      x
            x---------------------------------------------------------------x
            x  H                 1        -0.000000   0.408226   0.442830   x
            x  H                 2        -0.000000   0.091774   0.942830   x
            x  H                 3         0.000000   0.908226   0.057170   x
            x  H                 4         0.000000   0.591774   0.557170   x
            x  H                 5         0.500000   0.908226   0.442830   x
            x  H                 6         0.500000   0.591774   0.942830   x
            x  H                 7         0.500000   0.408226   0.057170   x
            x  H                 8         0.500000   0.091774   0.557170   x
            xxxxxxxxxxxxxxxxxxxxxxxxxxxxxxxxxxxxxxxxxxxxxxxxxxxxxxxxxxxxxxxxx


------------------------------------------------------------------------ <-- SCF
SCF loop      Energy                           Energy gain       Timer   <-- SCF
                                               per atom          (sec)   <-- SCF
------------------------------------------------------------------------ <-- SCF
Initial  -1.21837953E+002                                         81.54  <-- SCF
      1  -1.22694560E+002                    1.07075919E-001      83.20  <-- SCF
      2  -1.22697422E+002                    3.57713969E-004      85.34  <-- SCF
      3  -1.22626908E+002                   -8.81423317E-003      87.47  <-- SCF
      4  -1.22624219E+002                   -3.36132098E-004      89.61  <-- SCF
      5  -1.22624254E+002                    4.38659398E-006      91.73  <-- SCF
      6  -1.22624258E+002                    4.42663621E-007      93.88  <-- SCF
      7  -1.22624258E+002                    1.55609311E-009      96.02  <-- SCF
      8  -1.22624258E+002                    9.16109488E-011      97.60  <-- SCF
      9  -1.22624258E+002                    3.50444205E-012      99.17  <-- SCF
     10  -1.22624258E+002                   -6.04214146E-015     100.75  <-- SCF
------------------------------------------------------------------------ <-- SCF
 
Final energy =  -122.6242576493     eV
(energy not corrected for finite basis set)
 

 ******************************** Symmetrised Forces ********************************
 *                                                                                  *
 *                           Cartesian components (eV/A)                            *
 * -------------------------------------------------------------------------------- *
 *                         x                    y                    z              *
 *                                                                                  *
 * H               1      0.00000             -1.01569             -0.66699         *
 * H               2      0.00000              1.01569             -0.66699         *
 * H               3     -0.00000             -1.01569              0.66699         *
 * H               4     -0.00000              1.01569              0.66699         *
 * H               5      0.00000             -1.01569             -0.66699         *
 * H               6      0.00000              1.01569             -0.66699         *
 * H               7     -0.00000             -1.01569              0.66699         *
 * H               8     -0.00000              1.01569              0.66699         *
 *                                                                                  *
 ************************************************************************************

 *********** Symmetrised Stress Tensor ***********
 *                                               *
 *          Cartesian components (GPa)           *
 * --------------------------------------------- *
 *             x             y             z     *
 *                                               *
 *  x    -65.580562     -0.000000      0.000000  *
 *  y     -0.000000    -77.954340      0.000000  *
 *  z      0.000000      0.000000    -71.863785  *
 *                                               *
 *  Pressure:   71.7996                          *
 *                                               *
 *************************************************
  
 +------------+-------------+-------------+-----------------+ <-- min LBFGS
 |    Step    |   lambda    |   F.delta'  |    enthalpy     | <-- min LBFGS
 +------------+-------------+-------------+-----------------+ <-- min LBFGS
 |  previous  |    0.000000 |    0.062412 |     -112.988853 | <-- min LBFGS
 | trial step |    1.000000 |   -0.242373 |     -112.901898 | <-- min LBFGS
 +------------+-------------+-------------+-----------------+ <-- min LBFGS
  

--------------------------------------------------------------------------------
 LBFGS: improving iteration         2 with line minimization (lambda=  0.204774)
--------------------------------------------------------------------------------

                           -------------------------------
                                      Unit Cell
                           -------------------------------
        Real Lattice(A)              Reciprocal Lattice(1/A)
     2.1023066     0.0000000     0.0000000        2.988710308  -0.000000000   0.000000000
     0.0000000     3.2108020     0.0000000       -0.000000000   1.956889690   0.000000000
     0.0000000     0.0000000     3.1499606        0.000000000   0.000000000   1.994686969

                       Lattice parameters(A)       Cell Angles
                    a =      2.102307          alpha =   90.000000
                    b =      3.210802          beta  =   90.000000
                    c =      3.149961          gamma =   90.000000

                Current cell volume =            21.262518 A**3

                           -------------------------------
                                     Cell Contents
                           -------------------------------

            xxxxxxxxxxxxxxxxxxxxxxxxxxxxxxxxxxxxxxxxxxxxxxxxxxxxxxxxxxxxxxxxx
            x  Element         Atom        Fractional coordinates of atoms  x
            x                 Number           u          v          w      x
            x---------------------------------------------------------------x
            x  H                 1        -0.000000   0.401872   0.438903   x
            x  H                 2        -0.000000   0.098128   0.938903   x
            x  H                 3         0.000000   0.901872   0.061097   x
            x  H                 4         0.000000   0.598128   0.561097   x
            x  H                 5         0.500000   0.901872   0.438903   x
            x  H                 6         0.500000   0.598128   0.938903   x
            x  H                 7         0.500000   0.401872   0.061097   x
            x  H                 8         0.500000   0.098128   0.561097   x
            xxxxxxxxxxxxxxxxxxxxxxxxxxxxxxxxxxxxxxxxxxxxxxxxxxxxxxxxxxxxxxxxx


------------------------------------------------------------------------ <-- SCF
SCF loop      Energy                           Energy gain       Timer   <-- SCF
                                               per atom          (sec)   <-- SCF
------------------------------------------------------------------------ <-- SCF
Initial  -1.21764442E+002                                        102.58  <-- SCF
      1  -1.22332012E+002                    7.09462549E-002     104.22  <-- SCF
      2  -1.22336476E+002                    5.57931178E-004     106.37  <-- SCF
      3  -1.22289527E+002                   -5.86858191E-003     108.51  <-- SCF
      4  -1.22287886E+002                   -2.05162785E-004     110.64  <-- SCF
      5  -1.22287899E+002                    1.62711267E-006     112.96  <-- SCF
      6  -1.22287900E+002                    1.42384363E-007     115.10  <-- SCF
      7  -1.22287900E+002                    3.92044349E-010     117.19  <-- SCF
      8  -1.22287900E+002                    3.94582048E-011     118.77  <-- SCF
      9  -1.22287900E+002                    1.27187078E-012     120.32  <-- SCF
     10  -1.22287900E+002                    1.23863900E-013     121.87  <-- SCF
------------------------------------------------------------------------ <-- SCF
 
Final energy =  -122.2879000230     eV
(energy not corrected for finite basis set)
 

 ******************************** Symmetrised Forces ********************************
 *                                                                                  *
 *                           Cartesian components (eV/A)                            *
 * -------------------------------------------------------------------------------- *
 *                         x                    y                    z              *
 *                                                                                  *
 * H               1      0.00000              0.05924              0.02177         *
 * H               2     -0.00000             -0.05924              0.02177         *
 * H               3      0.00000              0.05924             -0.02177         *
 * H               4     -0.00000             -0.05924             -0.02177         *
 * H               5      0.00000              0.05924              0.02177         *
 * H               6     -0.00000             -0.05924              0.02177         *
 * H               7      0.00000              0.05924             -0.02177         *
 * H               8     -0.00000             -0.05924             -0.02177         *
 *                                                                                  *
 ************************************************************************************

 *********** Symmetrised Stress Tensor ***********
 *                                               *
 *          Cartesian components (GPa)           *
 * --------------------------------------------- *
 *             x             y             z     *
 *                                               *
 *  x    -71.563657      0.000000      0.000000  *
 *  y      0.000000    -68.259939      0.000000  *
 *  z      0.000000      0.000000    -71.054941  *
 *                                               *
 *  Pressure:   70.2928                          *
 *                                               *
 *************************************************
  
 +------------+-------------+-------------+-----------------+ <-- min LBFGS
 |    Step    |   lambda    |   F.delta'  |    enthalpy     | <-- min LBFGS
 +------------+-------------+-------------+-----------------+ <-- min LBFGS
 |  previous  |    0.000000 |    0.062412 |     -112.988853 | <-- min LBFGS
 | trial step |    1.000000 |   -0.242373 |     -112.901898 | <-- min LBFGS
 |  line step |    0.204774 |    0.015338 |     -112.998186 | <-- min LBFGS
 +------------+-------------+-------------+-----------------+ <-- min LBFGS
  
 LBFGS: finished iteration     2 with enthalpy= -1.12998186E+002 eV
  
 +-----------+-----------------+-----------------+------------+-----+ <-- LBFGS
 | Parameter |      value      |    tolerance    |    units   | OK? | <-- LBFGS
 +-----------+-----------------+-----------------+------------+-----+ <-- LBFGS
 |  dE/ion   |   1.166705E-003 |   1.000000E-009 |         eV | No  | <-- LBFGS
 |  |F|max   |   6.311084E-002 |   1.000000E-005 |       eV/A | No  | <-- LBFGS
 |  |dR|max  |   6.143795E-003 |   1.000000E-005 |          A | No  | <-- LBFGS
 |   Smax    |   1.740061E+000 |   1.000000E-005 |        GPa | No  | <-- LBFGS
 +-----------+-----------------+-----------------+------------+-----+ <-- LBFGS
  

================================================================================
 Starting LBFGS iteration          3 ...
================================================================================
  
 +------------+-------------+-------------+-----------------+ <-- min LBFGS
 |    Step    |   lambda    |   F.delta'  |    enthalpy     | <-- min LBFGS
 +------------+-------------+-------------+-----------------+ <-- min LBFGS
 |  previous  |    0.000000 |    0.015932 |     -112.998186 | <-- min LBFGS
 +------------+-------------+-------------+-----------------+ <-- min LBFGS
  

--------------------------------------------------------------------------------
 LBFGS: starting iteration         3 with trial guess (lambda=  1.000000)
--------------------------------------------------------------------------------

                           -------------------------------
                                      Unit Cell
                           -------------------------------
        Real Lattice(A)              Reciprocal Lattice(1/A)
     2.1080447     0.0000000     0.0000000        2.980574933  -0.000000000   0.000000000
     0.0000000     3.2125705     0.0000000       -0.000000000   1.955812408   0.000000000
     0.0000000     0.0000000     3.1579027        0.000000000   0.000000000   1.989670327

                       Lattice parameters(A)       Cell Angles
                    a =      2.108045          alpha =   90.000000
                    b =      3.212571          beta  =   90.000000
                    c =      3.157903          gamma =   90.000000

                Current cell volume =            21.386083 A**3

                           -------------------------------
                                     Cell Contents
                           -------------------------------

            xxxxxxxxxxxxxxxxxxxxxxxxxxxxxxxxxxxxxxxxxxxxxxxxxxxxxxxxxxxxxxxxx
            x  Element         Atom        Fractional coordinates of atoms  x
            x                 Number           u          v          w      x
            x---------------------------------------------------------------x
            x  H                 1        -0.000000   0.402653   0.438790   x
            x  H                 2        -0.000000   0.097347   0.938790   x
            x  H                 3         0.000000   0.902653   0.061210   x
            x  H                 4         0.000000   0.597347   0.561210   x
            x  H                 5         0.500000   0.902653   0.438790   x
            x  H                 6         0.500000   0.597347   0.938790   x
            x  H                 7         0.500000   0.402653   0.061210   x
            x  H                 8         0.500000   0.097347   0.561210   x
            xxxxxxxxxxxxxxxxxxxxxxxxxxxxxxxxxxxxxxxxxxxxxxxxxxxxxxxxxxxxxxxxx


------------------------------------------------------------------------ <-- SCF
SCF loop      Energy                           Energy gain       Timer   <-- SCF
                                               per atom          (sec)   <-- SCF
------------------------------------------------------------------------ <-- SCF
Initial  -1.22337786E+002                                        123.74  <-- SCF
      1  -1.22343482E+002                    7.12002430E-004     125.38  <-- SCF
      2  -1.22343505E+002                    2.90764009E-006     127.51  <-- SCF
      3  -1.22343086E+002                   -5.24170092E-005     129.63  <-- SCF
      4  -1.22343070E+002                   -2.00517986E-006     131.76  <-- SCF
      5  -1.22343070E+002                    1.96577749E-008     133.86  <-- SCF
      6  -1.22343070E+002                    1.78890286E-009     135.99  <-- SCF
      7  -1.22343070E+002                    5.66450762E-012     137.53  <-- SCF
      8  -1.22343070E+002                    1.48032466E-013     139.19  <-- SCF
------------------------------------------------------------------------ <-- SCF
 
Final energy =  -122.3430698267     eV
(energy not corrected for finite basis set)
 

 ******************************** Symmetrised Forces ********************************
 *                                                                                  *
 *                           Cartesian components (eV/A)                            *
 * -------------------------------------------------------------------------------- *
 *                         x                    y                    z              *
 *                                                                                  *
 * H               1      0.00000             -0.00387             -0.02012         *
 * H               2      0.00000              0.00387             -0.02012         *
 * H               3      0.00000             -0.00387              0.02012         *
 * H               4      0.00000              0.00387              0.02012         *
 * H               5      0.00000             -0.00387             -0.02012         *
 * H               6      0.00000              0.00387             -0.02012         *
 * H               7      0.00000             -0.00387              0.02012         *
 * H               8      0.00000              0.00387              0.02012         *
 *                                                                                  *
 ************************************************************************************

 *********** Symmetrised Stress Tensor ***********
 *                                               *
 *          Cartesian components (GPa)           *
 * --------------------------------------------- *
 *             x             y             z     *
 *                                               *
 *  x    -70.926481     -0.000000      0.000000  *
 *  y     -0.000000    -68.579285      0.000000  *
 *  z      0.000000      0.000000    -70.599254  *
 *                                               *
 *  Pressure:   70.0350                          *
 *                                               *
 *************************************************
  
 +------------+-------------+-------------+-----------------+ <-- min LBFGS
 |    Step    |   lambda    |   F.delta'  |    enthalpy     | <-- min LBFGS
 +------------+-------------+-------------+-----------------+ <-- min LBFGS
 |  previous  |    0.000000 |    0.015932 |     -112.998186 | <-- min LBFGS
 | trial step |    1.000000 |    0.003430 |     -112.999370 | <-- min LBFGS
 +------------+-------------+-------------+-----------------+ <-- min LBFGS
  
 LBFGS: finished iteration     3 with enthalpy= -1.12999370E+002 eV
  
 +-----------+-----------------+-----------------+------------+-----+ <-- LBFGS
 | Parameter |      value      |    tolerance    |    units   | OK? | <-- LBFGS
 +-----------+-----------------+-----------------+------------+-----+ <-- LBFGS
 |  dE/ion   |   1.479358E-004 |   1.000000E-009 |         eV | No  | <-- LBFGS
 |  |F|max   |   2.049320E-002 |   1.000000E-005 |       eV/A | No  | <-- LBFGS
 |  |dR|max  |   2.534835E-003 |   1.000000E-005 |          A | No  | <-- LBFGS
 |   Smax    |   1.420715E+000 |   1.000000E-005 |        GPa | No  | <-- LBFGS
 +-----------+-----------------+-----------------+------------+-----+ <-- LBFGS
  

================================================================================
 Starting LBFGS iteration          4 ...
================================================================================
  
 +------------+-------------+-------------+-----------------+ <-- min LBFGS
 |    Step    |   lambda    |   F.delta'  |    enthalpy     | <-- min LBFGS
 +------------+-------------+-------------+-----------------+ <-- min LBFGS
 |  previous  |    0.000000 |    0.008720 |     -112.999370 | <-- min LBFGS
 +------------+-------------+-------------+-----------------+ <-- min LBFGS
  

--------------------------------------------------------------------------------
 LBFGS: starting iteration         4 with trial guess (lambda=  1.000000)
--------------------------------------------------------------------------------

                           -------------------------------
                                      Unit Cell
                           -------------------------------
        Real Lattice(A)              Reciprocal Lattice(1/A)
     2.1119010     0.0000000     0.0000000        2.975132563  -0.000000000   0.000000000
     0.0000000     3.2090759     0.0000000       -0.000000000   1.957942255   0.000000000
     0.0000000     0.0000000     3.1623978        0.000000000   0.000000000   1.986842199

                       Lattice parameters(A)       Cell Angles
                    a =      2.111901          alpha =   90.000000
                    b =      3.209076          beta  =   90.000000
                    c =      3.162398          gamma =   90.000000

                Current cell volume =            21.432362 A**3

                           -------------------------------
                                     Cell Contents
                           -------------------------------

            xxxxxxxxxxxxxxxxxxxxxxxxxxxxxxxxxxxxxxxxxxxxxxxxxxxxxxxxxxxxxxxxx
            x  Element         Atom        Fractional coordinates of atoms  x
            x                 Number           u          v          w      x
            x---------------------------------------------------------------x
            x  H                 1        -0.000000   0.403135   0.438172   x
            x  H                 2         0.000000   0.096865   0.938172   x
            x  H                 3         0.000000   0.903135   0.061828   x
            x  H                 4        -0.000000   0.596865   0.561828   x
            x  H                 5         0.500000   0.903135   0.438172   x
            x  H                 6         0.500000   0.596865   0.938172   x
            x  H                 7         0.500000   0.403135   0.061828   x
            x  H                 8         0.500000   0.096865   0.561828   x
            xxxxxxxxxxxxxxxxxxxxxxxxxxxxxxxxxxxxxxxxxxxxxxxxxxxxxxxxxxxxxxxxx


------------------------------------------------------------------------ <-- SCF
SCF loop      Energy                           Energy gain       Timer   <-- SCF
                                               per atom          (sec)   <-- SCF
------------------------------------------------------------------------ <-- SCF
Initial  -1.22361589E+002                                        141.06  <-- SCF
      1  -1.22363989E+002                    2.99946415E-004     142.71  <-- SCF
      2  -1.22363998E+002                    1.19164024E-006     144.93  <-- SCF
      3  -1.22363996E+002                   -2.90890442E-007     147.06  <-- SCF
      4  -1.22363997E+002                    1.32008335E-007     149.22  <-- SCF
      5  -1.22363997E+002                    3.82140675E-009     151.32  <-- SCF
      6  -1.22363997E+002                    4.08503142E-010     153.41  <-- SCF
      7  -1.22363997E+002                    4.64036464E-012     154.96  <-- SCF
      8  -1.22363997E+002                    2.77938507E-013     156.57  <-- SCF
------------------------------------------------------------------------ <-- SCF
 
Final energy =  -122.3639968708     eV
(energy not corrected for finite basis set)
 

 ******************************** Symmetrised Forces ********************************
 *                                                                                  *
 *                           Cartesian components (eV/A)                            *
 * -------------------------------------------------------------------------------- *
 *                         x                    y                    z              *
 *                                                                                  *
 * H               1      0.00000             -0.01645             -0.02794         *
 * H               2     -0.00000              0.01645             -0.02794         *
 * H               3      0.00000             -0.01645              0.02794         *
 * H               4      0.00000              0.01645              0.02794         *
 * H               5      0.00000             -0.01645             -0.02794         *
 * H               6     -0.00000              0.01645             -0.02794         *
 * H               7      0.00000             -0.01645              0.02794         *
 * H               8      0.00000              0.01645              0.02794         *
 *                                                                                  *
 ************************************************************************************

 *********** Symmetrised Stress Tensor ***********
 *                                               *
 *          Cartesian components (GPa)           *
 * --------------------------------------------- *
 *             x             y             z     *
 *                                               *
 *  x    -70.695070      0.000000      0.000000  *
 *  y      0.000000    -68.805712      0.000000  *
 *  z      0.000000      0.000000    -70.154649  *
 *                                               *
 *  Pressure:   69.8851                          *
 *                                               *
 *************************************************
  
 +------------+-------------+-------------+-----------------+ <-- min LBFGS
 |    Step    |   lambda    |   F.delta'  |    enthalpy     | <-- min LBFGS
 +------------+-------------+-------------+-----------------+ <-- min LBFGS
 |  previous  |    0.000000 |    0.008720 |     -112.999370 | <-- min LBFGS
 | trial step |    1.000000 |    0.006510 |     -113.000077 | <-- min LBFGS
 +------------+-------------+-------------+-----------------+ <-- min LBFGS
  

--------------------------------------------------------------------------------
 LBFGS: improving iteration         4 with line minimization (lambda=  3.946250)
--------------------------------------------------------------------------------

                           -------------------------------
                                      Unit Cell
                           -------------------------------
        Real Lattice(A)              Reciprocal Lattice(1/A)
     2.1232623     0.0000000     0.0000000        2.959212905  -0.000000000   0.000000000
     0.0000000     3.1987798     0.0000000       -0.000000000   1.964244370   0.000000000
     0.0000000     0.0000000     3.1756413        0.000000000   0.000000000   1.978556370

                       Lattice parameters(A)       Cell Angles
                    a =      2.123262          alpha =   90.000000
                    b =      3.198780          beta  =   90.000000
                    c =      3.175641          gamma =   90.000000

                Current cell volume =            21.568475 A**3

                           -------------------------------
                                     Cell Contents
                           -------------------------------

            xxxxxxxxxxxxxxxxxxxxxxxxxxxxxxxxxxxxxxxxxxxxxxxxxxxxxxxxxxxxxxxxx
            x  Element         Atom        Fractional coordinates of atoms  x
            x                 Number           u          v          w      x
            x---------------------------------------------------------------x
            x  H                 1        -0.000000   0.404555   0.436350   x
            x  H                 2         0.000000   0.095445   0.936350   x
            x  H                 3         0.000000   0.904555   0.063650   x
            x  H                 4        -0.000000   0.595445   0.563650   x
            x  H                 5         0.500000   0.904555   0.436350   x
            x  H                 6         0.500000   0.595445   0.936350   x
            x  H                 7         0.500000   0.404555   0.063650   x
            x  H                 8         0.500000   0.095445   0.563650   x
            xxxxxxxxxxxxxxxxxxxxxxxxxxxxxxxxxxxxxxxxxxxxxxxxxxxxxxxxxxxxxxxxx


------------------------------------------------------------------------ <-- SCF
SCF loop      Energy                           Energy gain       Timer   <-- SCF
                                               per atom          (sec)   <-- SCF
------------------------------------------------------------------------ <-- SCF
Initial  -1.22403962E+002                                        158.40  <-- SCF
      1  -1.22424321E+002                    2.54475746E-003     160.07  <-- SCF
      2  -1.22424396E+002                    9.48065971E-006     162.19  <-- SCF
      3  -1.22424431E+002                    4.39142913E-006     164.30  <-- SCF
      4  -1.22424443E+002                    1.39696728E-006     166.42  <-- SCF
      5  -1.22424443E+002                    3.20371802E-008     168.56  <-- SCF
      6  -1.22424443E+002                    3.51899152E-009     170.69  <-- SCF
      7  -1.22424443E+002                    3.84280197E-011     172.31  <-- SCF
      8  -1.22424443E+002                    2.50144656E-012     173.85  <-- SCF
      9  -1.22424443E+002                   -4.53160609E-014     175.39  <-- SCF
------------------------------------------------------------------------ <-- SCF
 
Final energy =  -122.4244429555     eV
(energy not corrected for finite basis set)
 

 ******************************** Symmetrised Forces ********************************
 *                                                                                  *
 *                           Cartesian components (eV/A)                            *
 * -------------------------------------------------------------------------------- *
 *                         x                    y                    z              *
 *                                                                                  *
 * H               1      0.00000             -0.04632             -0.04773         *
 * H               2      0.00000              0.04632             -0.04773         *
 * H               3      0.00000             -0.04632              0.04773         *
 * H               4      0.00000              0.04632              0.04773         *
 * H               5      0.00000             -0.04632             -0.04773         *
 * H               6      0.00000              0.04632             -0.04773         *
 * H               7     -0.00000             -0.04632              0.04773         *
 * H               8      0.00000              0.04632              0.04773         *
 *                                                                                  *
 ************************************************************************************

 *********** Symmetrised Stress Tensor ***********
 *                                               *
 *          Cartesian components (GPa)           *
 * --------------------------------------------- *
 *             x             y             z     *
 *                                               *
 *  x    -70.023235     -0.000000      0.000000  *
 *  y     -0.000000    -69.303075      0.000000  *
 *  z      0.000000      0.000000    -68.818846  *
 *                                               *
 *  Pressure:   69.3817                          *
 *                                               *
 *************************************************
  
 +------------+-------------+-------------+-----------------+ <-- min LBFGS
 |    Step    |   lambda    |   F.delta'  |    enthalpy     | <-- min LBFGS
 +------------+-------------+-------------+-----------------+ <-- min LBFGS
 |  previous  |    0.000000 |    0.008720 |     -112.999370 | <-- min LBFGS
 | trial step |    1.000000 |    0.006510 |     -113.000077 | <-- min LBFGS
 |  line step |    3.946250 |    0.000660 |     -113.001054 | <-- min LBFGS
 +------------+-------------+-------------+-----------------+ <-- min LBFGS
  
 LBFGS: finished iteration     4 with enthalpy= -1.13001054E+002 eV
  
 +-----------+-----------------+-----------------+------------+-----+ <-- LBFGS
 | Parameter |      value      |    tolerance    |    units   | OK? | <-- LBFGS
 +-----------+-----------------+-----------------+------------+-----+ <-- LBFGS
 |  dE/ion   |   2.105993E-004 |   1.000000E-009 |         eV | No  | <-- LBFGS
 |  |F|max   |   6.651341E-002 |   1.000000E-005 |       eV/A | No  | <-- LBFGS
 |  |dR|max  |   9.853007E-003 |   1.000000E-005 |          A | No  | <-- LBFGS
 |   Smax    |   1.181154E+000 |   1.000000E-005 |        GPa | No  | <-- LBFGS
 +-----------+-----------------+-----------------+------------+-----+ <-- LBFGS
  

================================================================================
 Starting LBFGS iteration          5 ...
================================================================================
  
 +------------+-------------+-------------+-----------------+ <-- min LBFGS
 |    Step    |   lambda    |   F.delta'  |    enthalpy     | <-- min LBFGS
 +------------+-------------+-------------+-----------------+ <-- min LBFGS
 |  previous  |    0.000000 |    0.008520 |     -113.001054 | <-- min LBFGS
 +------------+-------------+-------------+-----------------+ <-- min LBFGS
  

--------------------------------------------------------------------------------
 LBFGS: starting iteration         5 with trial guess (lambda=  1.000000)
--------------------------------------------------------------------------------

                           -------------------------------
                                      Unit Cell
                           -------------------------------
        Real Lattice(A)              Reciprocal Lattice(1/A)
     2.1279179     0.0000000     0.0000000        2.952738634  -0.000000000   0.000000000
     0.0000000     3.1859844     0.0000000       -0.000000000   1.972133099   0.000000000
     0.0000000     0.0000000     3.1770310        0.000000000   0.000000000   1.977690899

                       Lattice parameters(A)       Cell Angles
                    a =      2.127918          alpha =   90.000000
                    b =      3.185984          beta  =   90.000000
                    c =      3.177031          gamma =   90.000000

                Current cell volume =            21.538724 A**3

                           -------------------------------
                                     Cell Contents
                           -------------------------------

            xxxxxxxxxxxxxxxxxxxxxxxxxxxxxxxxxxxxxxxxxxxxxxxxxxxxxxxxxxxxxxxxx
            x  Element         Atom        Fractional coordinates of atoms  x
            x                 Number           u          v          w      x
            x---------------------------------------------------------------x
            x  H                 1        -0.000000   0.405264   0.434536   x
            x  H                 2         0.000000   0.094736   0.934536   x
            x  H                 3         0.000000   0.905264   0.065464   x
            x  H                 4        -0.000000   0.594736   0.565464   x
            x  H                 5         0.500000   0.905264   0.434536   x
            x  H                 6         0.500000   0.594736   0.934536   x
            x  H                 7         0.500000   0.405264   0.065464   x
            x  H                 8         0.500000   0.094736   0.565464   x
            xxxxxxxxxxxxxxxxxxxxxxxxxxxxxxxxxxxxxxxxxxxxxxxxxxxxxxxxxxxxxxxxx


------------------------------------------------------------------------ <-- SCF
SCF loop      Energy                           Energy gain       Timer   <-- SCF
                                               per atom          (sec)   <-- SCF
------------------------------------------------------------------------ <-- SCF
Initial  -1.22399601E+002                                        177.24  <-- SCF
      1  -1.22412456E+002                    1.60683935E-003     178.86  <-- SCF
      2  -1.22412512E+002                    6.95467792E-006     180.99  <-- SCF
      3  -1.22412745E+002                    2.91887657E-005     183.09  <-- SCF
      4  -1.22412763E+002                    2.14276138E-006     185.20  <-- SCF
      5  -1.22412763E+002                    2.15717833E-008     187.31  <-- SCF
      6  -1.22412763E+002                    2.39111404E-009     189.42  <-- SCF
      7  -1.22412763E+002                    9.56470993E-012     190.96  <-- SCF
      8  -1.22412763E+002                    7.88499460E-013     192.55  <-- SCF
      9  -1.22412763E+002                   -1.66158890E-013     194.08  <-- SCF
------------------------------------------------------------------------ <-- SCF
 
Final energy =  -122.4127626949     eV
(energy not corrected for finite basis set)
 

 ******************************** Symmetrised Forces ********************************
 *                                                                                  *
 *                           Cartesian components (eV/A)                            *
 * -------------------------------------------------------------------------------- *
 *                         x                    y                    z              *
 *                                                                                  *
 * H               1      0.00000             -0.01457             -0.02293         *
 * H               2      0.00000              0.01457             -0.02293         *
 * H               3     -0.00000             -0.01457              0.02293         *
 * H               4     -0.00000              0.01457              0.02293         *
 * H               5      0.00000             -0.01457             -0.02293         *
 * H               6      0.00000              0.01457             -0.02293         *
 * H               7     -0.00000             -0.01457              0.02293         *
 * H               8     -0.00000              0.01457              0.02293         *
 *                                                                                  *
 ************************************************************************************

 *********** Symmetrised Stress Tensor ***********
 *                                               *
 *          Cartesian components (GPa)           *
 * --------------------------------------------- *
[...]
            x  H                 8         0.500000   0.096017   0.590727   x
            xxxxxxxxxxxxxxxxxxxxxxxxxxxxxxxxxxxxxxxxxxxxxxxxxxxxxxxxxxxxxxxxx


------------------------------------------------------------------------ <-- SCF
SCF loop      Energy                           Energy gain       Timer   <-- SCF
                                               per atom          (sec)   <-- SCF
------------------------------------------------------------------------ <-- SCF
Initial  -1.22540562E+002                                        761.13  <-- SCF
      1  -1.22540562E+002                    1.18035046E-009     762.75  <-- SCF
      2  -1.22540562E+002                    5.46813802E-013     764.28  <-- SCF
      3  -1.22540562E+002                    1.03894622E-011     765.83  <-- SCF
      4  -1.22540562E+002                    7.49225541E-013     767.38  <-- SCF
      5  -1.22540562E+002                   -3.92739195E-014     768.93  <-- SCF
------------------------------------------------------------------------ <-- SCF
 
Final energy =  -122.5405617406     eV
(energy not corrected for finite basis set)
 

 ******************************** Symmetrised Forces ********************************
 *                                                                                  *
 *                           Cartesian components (eV/A)                            *
 * -------------------------------------------------------------------------------- *
 *                         x                    y                    z              *
 *                                                                                  *
 * H               1     -0.00000              0.00000              0.00000         *
 * H               2      0.00000             -0.00000              0.00000         *
 * H               3      0.00000              0.00000             -0.00000         *
 * H               4      0.00000             -0.00000             -0.00000         *
 * H               5     -0.00000              0.00000              0.00000         *
 * H               6      0.00000             -0.00000              0.00000         *
 * H               7      0.00000              0.00000             -0.00000         *
 * H               8      0.00000             -0.00000             -0.00000         *
 *                                                                                  *
 ************************************************************************************

 *********** Symmetrised Stress Tensor ***********
 *                                               *
 *          Cartesian components (GPa)           *
 * --------------------------------------------- *
 *             x             y             z     *
 *                                               *
 *  x    -69.999989      0.000000      0.000000  *
 *  y      0.000000    -69.999942      0.000000  *
 *  z      0.000000      0.000000    -69.999977  *
 *                                               *
 *  Pressure:   70.0000                          *
 *                                               *
 *************************************************
  
 +------------+-------------+-------------+-----------------+ <-- min LBFGS
 |    Step    |   lambda    |   F.delta'  |    enthalpy     | <-- min LBFGS
 +------------+-------------+-------------+-----------------+ <-- min LBFGS
 |  previous  |    0.000000 |  2.303E-006 |     -113.178413 | <-- min LBFGS
 | trial step |    1.000000 | -2.442E-007 |     -113.178414 | <-- min LBFGS
 +------------+-------------+-------------+-----------------+ <-- min LBFGS
  
 LBFGS: finished iteration    23 with enthalpy= -1.13178414E+002 eV
  
 +-----------+-----------------+-----------------+------------+-----+ <-- LBFGS
 | Parameter |      value      |    tolerance    |    units   | OK? | <-- LBFGS
 +-----------+-----------------+-----------------+------------+-----+ <-- LBFGS
 |  dE/ion   |   3.931410E-010 |   1.000000E-009 |         eV | Yes | <-- LBFGS
 |  |F|max   |   3.923925E-006 |   1.000000E-005 |       eV/A | Yes | <-- LBFGS
 |  |dR|max  |   3.478382E-006 |   1.000000E-005 |          A | Yes | <-- LBFGS
 |   Smax    |   5.805053E-005 |   1.000000E-005 |        GPa | No  | <-- LBFGS
 +-----------+-----------------+-----------------+------------+-----+ <-- LBFGS
  

================================================================================
 Starting LBFGS iteration         24 ...
================================================================================
  
 +------------+-------------+-------------+-----------------+ <-- min LBFGS
 |    Step    |   lambda    |   F.delta'  |    enthalpy     | <-- min LBFGS
 +------------+-------------+-------------+-----------------+ <-- min LBFGS
 |  previous  |    0.000000 |  3.017E-007 |     -113.178414 | <-- min LBFGS
 +------------+-------------+-------------+-----------------+ <-- min LBFGS
  

--------------------------------------------------------------------------------
 LBFGS: starting iteration        24 with trial guess (lambda=  1.000000)
--------------------------------------------------------------------------------

                           -------------------------------
                                      Unit Cell
                           -------------------------------
        Real Lattice(A)              Reciprocal Lattice(1/A)
     2.7905658     0.0000000     0.0000000        2.251581117  -0.000000000   0.000000000
     0.0000000     2.7620719     0.0000000       -0.000000000   2.274808717   0.000000000
     0.0000000     0.0000000     2.7801012        0.000000000   0.000000000   2.260056366

                       Lattice parameters(A)       Cell Angles
                    a =      2.790566          alpha =   90.000000
                    b =      2.762072          beta  =   90.000000
                    c =      2.780101          gamma =   90.000000

                Current cell volume =            21.428307 A**3

                           -------------------------------
                                     Cell Contents
                           -------------------------------

            xxxxxxxxxxxxxxxxxxxxxxxxxxxxxxxxxxxxxxxxxxxxxxxxxxxxxxxxxxxxxxxxx
            x  Element         Atom        Fractional coordinates of atoms  x
            x                 Number           u          v          w      x
            x---------------------------------------------------------------x
            x  H                 1         0.000000   0.403984   0.409273   x
            x  H                 2         0.000000   0.096016   0.909273   x
            x  H                 3         0.000000   0.903984   0.090727   x
            x  H                 4        -0.000000   0.596016   0.590727   x
            x  H                 5         0.500000   0.903984   0.409273   x
            x  H                 6         0.500000   0.596016   0.909273   x
            x  H                 7         0.500000   0.403984   0.090727   x
            x  H                 8         0.500000   0.096016   0.590727   x
            xxxxxxxxxxxxxxxxxxxxxxxxxxxxxxxxxxxxxxxxxxxxxxxxxxxxxxxxxxxxxxxxx


------------------------------------------------------------------------ <-- SCF
SCF loop      Energy                           Energy gain       Timer   <-- SCF
                                               per atom          (sec)   <-- SCF
------------------------------------------------------------------------ <-- SCF
Initial  -1.22540561E+002                                        770.78  <-- SCF
      1  -1.22540561E+002                    2.53108327E-010     771.84  <-- SCF
      2  -1.22540561E+002                    5.74003439E-014     773.38  <-- SCF
      3  -1.22540561E+002                    2.65854224E-013     774.92  <-- SCF
      4  -1.22540561E+002                    6.04214146E-015     776.47  <-- SCF
------------------------------------------------------------------------ <-- SCF
 
Final energy =  -122.5405614950     eV
(energy not corrected for finite basis set)
 

 ******************************** Symmetrised Forces ********************************
 *                                                                                  *
 *                           Cartesian components (eV/A)                            *
 * -------------------------------------------------------------------------------- *
 *                         x                    y                    z              *
 *                                                                                  *
 * H               1      0.00000              0.00000              0.00000         *
 * H               2     -0.00000             -0.00000              0.00000         *
 * H               3     -0.00000              0.00000             -0.00000         *
 * H               4     -0.00000             -0.00000             -0.00000         *
 * H               5      0.00000              0.00000              0.00000         *
 * H               6     -0.00000             -0.00000              0.00000         *
 * H               7      0.00000              0.00000             -0.00000         *
 * H               8     -0.00000             -0.00000             -0.00000         *
 *                                                                                  *
 ************************************************************************************

 *********** Symmetrised Stress Tensor ***********
 *                                               *
 *          Cartesian components (GPa)           *
 * --------------------------------------------- *
 *             x             y             z     *
 *                                               *
 *  x    -70.000002      0.000000      0.000000  *
 *  y      0.000000    -70.000001      0.000000  *
 *  z      0.000000      0.000000    -69.999996  *
 *                                               *
 *  Pressure:   70.0000                          *
 *                                               *
 *************************************************
  
 +------------+-------------+-------------+-----------------+ <-- min LBFGS
 |    Step    |   lambda    |   F.delta'  |    enthalpy     | <-- min LBFGS
 +------------+-------------+-------------+-----------------+ <-- min LBFGS
 |  previous  |    0.000000 |  3.017E-007 |     -113.178414 | <-- min LBFGS
 | trial step |    1.000000 | -1.794E-008 |     -113.178414 | <-- min LBFGS
 +------------+-------------+-------------+-----------------+ <-- min LBFGS
  
 LBFGS: finished iteration    24 with enthalpy= -1.13178414E+002 eV
  
 +-----------+-----------------+-----------------+------------+-----+ <-- LBFGS
 | Parameter |      value      |    tolerance    |    units   | OK? | <-- LBFGS
 +-----------+-----------------+-----------------+------------+-----+ <-- LBFGS
 |  dE/ion   |   8.996447E-011 |   1.000000E-009 |         eV | Yes | <-- LBFGS
 |  |F|max   |   9.907888E-008 |   1.000000E-005 |       eV/A | Yes | <-- LBFGS
 |  |dR|max  |   2.846689E-007 |   1.000000E-005 |          A | Yes | <-- LBFGS
 |   Smax    |   4.244492E-006 |   1.000000E-005 |        GPa | Yes | <-- LBFGS
 +-----------+-----------------+-----------------+------------+-----+ <-- LBFGS
  
 LBFGS: Geometry optimization completed successfully.

================================================================================
 LBFGS: Final Configuration:
================================================================================

                           -------------------------------
                                      Unit Cell
                           -------------------------------
        Real Lattice(A)              Reciprocal Lattice(1/A)
     2.7905658     0.0000000     0.0000000        2.251581117  -0.000000000   0.000000000
     0.0000000     2.7620719     0.0000000       -0.000000000   2.274808717   0.000000000
     0.0000000     0.0000000     2.7801012        0.000000000   0.000000000   2.260056366

                       Lattice parameters(A)       Cell Angles
                    a =      2.790566          alpha =   90.000000
                    b =      2.762072          beta  =   90.000000
                    c =      2.780101          gamma =   90.000000

                Current cell volume =            21.428307 A**3

                           -------------------------------
                                     Cell Contents
                           -------------------------------

            xxxxxxxxxxxxxxxxxxxxxxxxxxxxxxxxxxxxxxxxxxxxxxxxxxxxxxxxxxxxxxxxx
            x  Element         Atom        Fractional coordinates of atoms  x
            x                 Number           u          v          w      x
            x---------------------------------------------------------------x
            x  H                 1         0.000000   0.403984   0.409273   x
            x  H                 2         0.000000   0.096016   0.909273   x
            x  H                 3         0.000000   0.903984   0.090727   x
            x  H                 4        -0.000000   0.596016   0.590727   x
            x  H                 5         0.500000   0.903984   0.409273   x
            x  H                 6         0.500000   0.596016   0.909273   x
            x  H                 7         0.500000   0.403984   0.090727   x
            x  H                 8         0.500000   0.096016   0.590727   x
            xxxxxxxxxxxxxxxxxxxxxxxxxxxxxxxxxxxxxxxxxxxxxxxxxxxxxxxxxxxxxxxxx


 LBFGS: Final Enthalpy     = -1.13178414E+002 eV
 LBFGS: Final <frequency>  =    2404.23392 cm-1
 LBFGS: Final bulk modulus =     170.47122 GPa

 ******************************** Symmetrised Forces ********************************
 *                                                                                  *
 *                           Cartesian components (eV/A)                            *
 * -------------------------------------------------------------------------------- *
 *                         x                    y                    z              *
 *                                                                                  *
 * H               1      0.00000              0.00000              0.00000         *
 * H               2     -0.00000             -0.00000              0.00000         *
 * H               3     -0.00000              0.00000             -0.00000         *
 * H               4     -0.00000             -0.00000             -0.00000         *
 * H               5      0.00000              0.00000              0.00000         *
 * H               6     -0.00000             -0.00000              0.00000         *
 * H               7      0.00000              0.00000             -0.00000         *
 * H               8     -0.00000             -0.00000             -0.00000         *
 *                                                                                  *
 ************************************************************************************

 *********** Symmetrised Stress Tensor ***********
 *                                               *
 *          Cartesian components (GPa)           *
 * --------------------------------------------- *
 *             x             y             z     *
 *                                               *
 *  x    -70.000002      0.000000      0.000000  *
 *  y      0.000000    -70.000001      0.000000  *
 *  z      0.000000      0.000000    -69.999996  *
 *                                               *
 *  Pressure:   70.0000                          *
 *                                               *
 *************************************************

 Pseudo atomic calculation performed for H 1s1

 Converged in 24 iterations to a total energy of -12.4855 eV

Charge spilling parameter for spin component 1 = 0.58%

            Orbital Populations       
     Ion    Atom   Orbital             Charge
  -------------------------------------------
      H     1      S                    0.999
      H     2      S                    1.001
      H     3      S                    1.001
      H     4      S                    0.999
      H     5      S                    0.999
      H     6      S                    1.001
      H     7      S                    1.001
      H     8      S                    0.999
  -------------------------------------------
                           Total:       8.000
  -------------------------------------------

     Atomic Populations (Mulliken)
     -----------------------------
Species          Ion     s      p      d      f     Total  Charge (e)
=====================================================================
  H               1     1.00   0.00   0.00   0.00   1.00     0.00
  H               2     1.00   0.00   0.00   0.00   1.00     0.00
  H               3     1.00   0.00   0.00   0.00   1.00     0.00
  H               4     1.00   0.00   0.00   0.00   1.00     0.00
  H               5     1.00   0.00   0.00   0.00   1.00     0.00
  H               6     1.00   0.00   0.00   0.00   1.00     0.00
  H               7     1.00   0.00   0.00   0.00   1.00     0.00
  H               8     1.00   0.00   0.00   0.00   1.00     0.00
=====================================================================

                 Bond                   Population      Length (A)
======================================================================
               H 2 -- H 3                    1.51        0.73199
               H 5 -- H 8                    1.51        0.73199
               H 6 -- H 7                    1.51        0.73199
               H 1 -- H 4                    1.51        0.73199
               H 5 -- H 6                   -0.27        1.62966
               H 1 -- H 2                   -0.27        1.62966
               H 3 -- H 4                   -0.27        1.62966
               H 7 -- H 8                   -0.27        1.62966
               H 6 -- H 8                   -0.28        1.64059
               H 2 -- H 4                   -0.28        1.64059
               H 5 -- H 7                   -0.28        1.64059
               H 1 -- H 3                   -0.28        1.64059
               H 1 -- H 7                   -0.22        1.65260
               H 3 -- H 5                   -0.22        1.65260
               H 4 -- H 6                   -0.22        1.65260
               H 2 -- H 8                   -0.22        1.65260
               H 3 -- H 6                   -0.25        1.71022
               H 4 -- H 5                   -0.25        1.71022
               H 2 -- H 7                   -0.25        1.71022
               H 1 -- H 8                   -0.25        1.71022
               H 4 -- H 8                   -0.28        1.96318
               H 2 -- H 6                   -0.28        1.96318
               H 3 -- H 7                   -0.28        1.96318
               H 1 -- H 5                   -0.28        1.96318
               H 2 -- H 5                   -0.29        2.03970
               H 1 -- H 6                   -0.29        2.03970
               H 3 -- H 8                   -0.29        2.03970
               H 4 -- H 7                   -0.29        2.03970
======================================================================


Writing analysis data to Cmca4.castep_bin

Writing model to Cmca4.check
 
 A BibTeX formatted list of references used in this run has been written to 
 Cmca4.bib
 
Initialisation time =      4.30 s
Calculation time    =    774.94 s
Finalisation time   =      5.44 s
Total time          =    784.69 s
Peak Memory Use     = 562852 kB
  
Overall parallel efficiency rating: Excellent (95%)                             
  
Data was distributed by:-
k-point (32-way); efficiency rating: Excellent (95%)                            
