 +-------------------------------------------------+
 |                                                 |
 |      CCC   AA    SSS  TTTTT  EEEEE  PPPP        |
 |     C     A  A  S       T    E      P   P       |
 |     C     AAAA   SS     T    EEE    PPPP        |
 |     C     A  A     S    T    E      P           |
 |      CCC  A  A  SSS     T    EEEEE  P           |
 |                                                 |
 +-------------------------------------------------+
 |                                                 |
 | Welcome to Academic Release CASTEP version 18.1 |          
 | Ab Initio Total Energy Program                  |
 |                                                 |
 | Authors:                                        |
 | M. Segall, M. Probert, C. Pickard, P. Hasnip,   |
 | S. Clark, K. Refson, J. R. Yates, M. Payne      |
 |                                                 |
 | Contributors:                                   |
 | P. Lindan, P. Haynes, J. White, V. Milman,      |
 | N. Govind, M. Gibson, P. Tulip, V. Cocula,      |
 | B. Montanari, D. Quigley, M. Glover,            |
 | L. Bernasconi, A. Perlov, M. Plummer,           |
 | E. McNellis, J. Meyer, J. Gale, D. Jochym       |
 | J. Aarons, B. Walker, R. Gillen, D. Jones       |
 | T. Green, I. J. Bush, C. J. Armstrong,          |
 | E. J. Higgins, E. L. Brown, M. S. McFly,        |
 | J. Wilkins, B-C. Shih, P. J. P. Byrne           |
 |                                                 |
 | Copyright (c) 2000 - 2017                       |
 |                                                 |
 |     Distributed under the terms of an           |
 |     Agreement between the United Kingdom        |
 |     Car-Parrinello (UKCP) Consortium,           |
 |     Daresbury Laboratory and Accelrys, Inc.     |
 |                                                 |
 | Please cite                                     |
 |                                                 |
 |     "First principles methods using CASTEP"     |
 |                                                 |
 |         Zeitschrift fuer Kristallographie       |
 |           220(5-6) pp. 567-570 (2005)           |
 |                                                 |
 | S. J. Clark, M. D. Segall, C. J. Pickard,       |
 | P. J. Hasnip, M. J. Probert, K. Refson,         |
 | M. C. Payne                                     |
 |                                                 |
 |       in all publications arising from          |
 |              your use of CASTEP                 |
 |                                                 |
 +-------------------------------------------------+


 Compiled for linux_x86_64_gfortran4.8 on Thu, 19 Jul 2018 15:42:32 +0100
 from code version 70483bd0ad64+  Sun, 10 Dec 2017 12:18:29 +0000
 Compiler: GNU Fortran 4.8.5; Optimisation: fast
 MATHLIBS: Intel MKL(2018.0.0) (LAPACK version 3.7.0)
 FFT Lib : mkl
 Fundamental constants values: CODATA 2014

 Run started: Thu, 27 Aug 2020 11:17:21 +0100

 Atomic calculation performed for H: 1s1

 Converged in 41 iterations to an ae energy of -12.488 eV

   ============================================================                
   | Pseudopotential Report - Date of generation 27-08-2020   |                
   ------------------------------------------------------------                
   | Element: H Ionic charge:  1.00 Level of theory: PBE      |                
   | Atomic Solver: Koelling-Harmon                           |                
   |                                                          |                
   |               Reference Electronic Structure             |                
   |         Orbital         Occupation         Energy        |                
   |            1s              1.000           -0.239        |                
   |                                                          |                
   |                 Pseudopotential Definition               |                
   |        Beta     l      e      Rc     scheme   norm       |                
   |         loc     0   -0.239   0.702     qc      1         |                
   |                                                          |                
   | No charge augmentation                                   |                
   | No partial core correction                               |                
   ------------------------------------------------------------                
   | "0|0.7|2|6|8|10L(qc=10)"                                 |                
   ------------------------------------------------------------                
   |      Author: Chris J. Pickard, Cambridge University      |                
   ============================================================                

 Pseudo atomic calculation performed for H 1s1

 Converged in 24 iterations to a total energy of -12.4855 eV

 Calculation parallelised over 32 processes.
 Data is distributed by k-point(32-way)

 ************************************ Title ************************************
 

 ***************************** General Parameters ******************************
  
 output verbosity                               : normal  (1)
 write checkpoint data to                       : Cmca4.check
 type of calculation                            : geometry optimization
 stress calculation                             : on
 density difference calculation                 : off
 electron localisation func (ELF) calculation   : off
 Hirshfeld analysis                             : off
 unlimited duration calculation
 timing information                             : on
 memory usage estimate                          : on
 write extra output files                       : on
 write final potential to formatted file        : off
 write final density to formatted file          : off
 write structure in CELL formatted file         : on
 write BibTeX reference list                    : on
 write OTFG pseudopotential files               : on
 write electrostatic potential file             : on
 write bands file                               : on
 checkpoint writing                             : both castep_bin and check files
  
 output         length unit                     : A
 output           mass unit                     : amu
 output           time unit                     : ps
 output         charge unit                     : e
 output           spin unit                     : hbar/2
 output         energy unit                     : eV
 output          force unit                     : eV/A
 output       velocity unit                     : A/ps
 output       pressure unit                     : GPa
 output     inv_length unit                     : 1/A
 output      frequency unit                     : cm-1
 output force constant unit                     : eV/A**2
 output         volume unit                     : A**3
 output   IR intensity unit                     : (D/A)**2/amu
 output         dipole unit                     : D
 output         efield unit                     : eV/A/e
 output        entropy unit                     : J/mol/K
  
 wavefunctions paging                           : none
 random number generator seed                   : randomised (111722523)
 data distribution                              : optimal for this architecture
 optimization strategy                          : maximize speed(+++)

 *********************** Exchange-Correlation Parameters ***********************
  
 using functional                               : Perdew Burke Ernzerhof
 relativistic treatment                         : Koelling-Harmon
 DFT+D: Semi-empirical dispersion correction    : off

 ************************* Pseudopotential Parameters **************************
  
 pseudopotential representation                 : reciprocal space
 <beta|phi> representation                      : reciprocal space
 spin-orbit coupling                            : off

 **************************** Basis Set Parameters *****************************
  
 plane wave basis set cut-off                   :  1600.0000   eV
 size of standard grid                          :     2.0000
 size of   fine   gmax                          :    40.9853   1/A
 finite basis set correction                    : automatic
 number of sample energies                      :          3
           sample  spacing                      :     5.0000   eV

 **************************** Electronic Parameters ****************************
  
 number of  electrons                           :  8.000    
 net charge of system                           :  0.000    
 treating system as non-spin-polarized
 number of bands                                :          4

 ********************* Electronic Minimization Parameters **********************
  
 Method: Treating system as non-metallic,
         and number of  SD  steps               :          1
         and number of  CG  steps               :          4
  
 total energy / atom convergence tol.           : 0.1000E-10   eV
 eigen-energy convergence tolerance             : 0.2000E-10   eV
 max force / atom convergence tol.              : ignored
 convergence tolerance window                   :          3   cycles
 max. number of SCF cycles                      :        100
 periodic dipole correction                     : NONE

 ************************** Density Mixing Parameters **************************
  
 density-mixing scheme                          : Broyden
 max. length of mixing history                  :         20
 charge density mixing amplitude                : 0.8000    
 cut-off energy for mixing                      :  1600.       eV

 *********************** Population Analysis Parameters ************************
  
 Population analysis with cutoff                :  3.000       A
 Population analysis output                     : summary and pdos components

 ********************** Geometry Optimization Parameters ***********************
  
 optimization method                            : LBFGS
 max. no. of LBFGS updates                      : unbounded
 variable cell method                           : fixed basis quality
 max. number of steps                           :        200
 estimated bulk modulus                         :  500.0       GPa
 estimated <frequency>                          :  1668.       cm-1
 geom line minimiser                            : on
 with line minimiser tolerance                  :     0.4000
 total energy convergence tolerance             : 0.1000E-08   eV/atom
        max ionic |force| tolerance             : 0.1000E-04   eV/A
 max ionic |displacement| tolerance             : 0.1000E-04   A
   max |stress component| tolerance             : 0.1000E-04   GPa
 convergence tolerance window                   :          2   steps
 backup results every                           :      14400   seconds
 write geom trajectory file                     : on

 *******************************************************************************
  

                           -------------------------------
                                      Unit Cell
                           -------------------------------
        Real Lattice(A)                      Reciprocal Lattice(1/A)
     1.7496144     0.0000000     0.0000000        3.591182963  -0.000000000   0.000000000
     0.0000000     2.9361520     0.0000000       -0.000000000   2.139938673   0.000000000
     0.0000000     0.0000000     2.7199141        0.000000000   0.000000000   2.310067536

                       Lattice parameters(A)       Cell Angles
                    a =      1.749614          alpha =   90.000000
                    b =      2.936152          beta  =   90.000000
                    c =      2.719914          gamma =   90.000000

                       Current cell volume =            13.972563       A**3
                                   density =             0.577097   AMU/A**3
                                           =             0.958292     g/cm^3

                           -------------------------------
                                     Cell Contents
                           -------------------------------
                         Total number of ions in cell =    8
                      Total number of species in cell =    1
                        Max number of any one species =    8

            xxxxxxxxxxxxxxxxxxxxxxxxxxxxxxxxxxxxxxxxxxxxxxxxxxxxxxxxxxxx
            x  Element    Atom        Fractional coordinates of atoms  x
            x            Number           u          v          w      x
            x----------------------------------------------------------x
            x  H            1         0.000000   0.378743   0.446787   x 
            x  H            2         0.000000   0.121257   0.946787   x 
            x  H            3        -0.000000   0.878743   0.053213   x 
            x  H            4        -0.000000   0.621257   0.553213   x 
            x  H            5         0.500000   0.878743   0.446787   x 
            x  H            6         0.500000   0.621257   0.946787   x 
            x  H            7         0.500000   0.378743   0.053213   x 
            x  H            8         0.500000   0.121257   0.553213   x 
            xxxxxxxxxxxxxxxxxxxxxxxxxxxxxxxxxxxxxxxxxxxxxxxxxxxxxxxxxxxx


                         No user defined ionic velocities

                           -------------------------------
                                   Details of Species
                           -------------------------------

                               Mass of species in AMU
                                    H    1.0079400

                          Electric Quadrupole Moment (Barn)
                                    H    0.0028600 Isotope  2

                          Files used for pseudopotentials:
                                    H 0|0.7|2|6|8|10L(qc=10)

                           -------------------------------
                              k-Points For BZ Sampling
                           -------------------------------
                       MP grid size for SCF calculation is 18 18 18
                            with an offset of   0.000  0.000  0.000
                       Number of kpoints used =           729

                           -------------------------------
                               Symmetry and Constraints
                           -------------------------------

                      Cell is a supercell containing 2 primitive cells
                      Maximum deviation from symmetry = 0.286873E-14     ANG

                      Number of symmetry operations   =          16
                      Number of ionic constraints     =           3
                      Point group of crystal =     8: D2h, mmm, 2/m 2/m 2/m
                      Space group of crystal =    64: Cmce, -C 2bc 2

             Set iprint > 1 for details on symmetry rotations/translations

                         Centre of mass is constrained
             Set iprint > 1 for details of linear ionic constraints

                         Number of cell constraints= 3
                         Cell constraints are:  1 2 3 0 0 0

                         External pressure/stress (GPa)
                        180.00000   0.00000   0.00000
                                  180.00000   0.00000
                                            180.00000
  
+---------------- MEMORY AND SCRATCH DISK ESTIMATES PER PROCESS --------------+
|                                                     Memory          Disk    |
| Baseline code, static data and system overhead      479.0 MB         0.0 MB |
| BLAS internal memory storage                          0.0 MB         0.0 MB |
| Model and support data                               22.5 MB         0.0 MB |
| Electronic energy minimisation requirements          13.6 MB         0.0 MB |
| Force calculation requirements                        4.0 MB         0.0 MB |
| Stress calculation requirements                       5.0 MB         0.0 MB |
|                                               ----------------------------- |
| Approx. total storage required per process          515.1 MB         0.0 MB |
|                                                                             |
| Requirements will fluctuate during execution and may exceed these estimates |
+-----------------------------------------------------------------------------+
Calculating finite basis set correction with  3 cut-off energies.
Calculating total energy with cut-off of 1590.000 eV.
------------------------------------------------------------------------ <-- SCF
SCF loop      Energy                           Energy gain       Timer   <-- SCF
                                               per atom          (sec)   <-- SCF
------------------------------------------------------------------------ <-- SCF
Initial   1.84621866E+002                                          4.60  <-- SCF
      1  -1.02064250E+002                    3.58357644E+001       5.64  <-- SCF
      2  -1.17183070E+002                    1.88985247E+000       6.40  <-- SCF
      3  -1.17028922E+002                   -1.92685050E-002       7.53  <-- SCF
      4  -1.17022817E+002                   -7.63018426E-004       8.68  <-- SCF
      5  -1.17022987E+002                    2.11984065E-005       9.82  <-- SCF
      6  -1.17023001E+002                    1.80894167E-006      10.95  <-- SCF
      7  -1.17023002E+002                    6.15260993E-009      12.09  <-- SCF
      8  -1.17023002E+002                    1.79092094E-010      13.00  <-- SCF
      9  -1.17023002E+002                    5.51043301E-012      13.82  <-- SCF
     10  -1.17023002E+002                   -2.59812083E-013      14.65  <-- SCF
------------------------------------------------------------------------ <-- SCF
 
Final energy =  -117.0230015106     eV
(energy not corrected for finite basis set)
 
Calculating total energy with cut-off of 1595.000 eV.
------------------------------------------------------------------------ <-- SCF
SCF loop      Energy                           Energy gain       Timer   <-- SCF
                                               per atom          (sec)   <-- SCF
------------------------------------------------------------------------ <-- SCF
Initial  -1.17023002E+002                                         15.21  <-- SCF
      1  -1.17023023E+002                    2.73243606E-006      16.06  <-- SCF
      2  -1.17023023E+002                    2.01505418E-012      16.88  <-- SCF
      3  -1.17023023E+002                    5.93794473E-010      17.70  <-- SCF
      4  -1.17023023E+002                    3.22710775E-011      18.53  <-- SCF
      5  -1.17023023E+002                    3.77633841E-013      19.35  <-- SCF
      6  -1.17023023E+002                    1.17821758E-013      20.16  <-- SCF
------------------------------------------------------------------------ <-- SCF
 
Final energy =  -117.0230233751     eV
(energy not corrected for finite basis set)
 
Calculating total energy with cut-off of 1600.000 eV.
------------------------------------------------------------------------ <-- SCF
SCF loop      Energy                           Energy gain       Timer   <-- SCF
                                               per atom          (sec)   <-- SCF
------------------------------------------------------------------------ <-- SCF
Initial  -1.17023023E+002                                         20.72  <-- SCF
      1  -1.17023043E+002                    2.45204961E-006      21.59  <-- SCF
      2  -1.17023043E+002                    2.55280477E-012      22.41  <-- SCF
      3  -1.17023043E+002                    5.08292129E-010      23.23  <-- SCF
      4  -1.17023043E+002                    2.75702915E-011      24.12  <-- SCF
      5  -1.17023043E+002                    4.35034185E-013      24.95  <-- SCF
      6  -1.17023043E+002                    9.66742633E-014      25.78  <-- SCF
------------------------------------------------------------------------ <-- SCF
 
Final energy =  -117.0230429958     eV
(energy not corrected for finite basis set)
 
 For future reference: finite basis dEtot/dlog(Ecut) =      -0.006606eV
 Total energy corrected for finite basis set =    -117.023043 eV
 
+---------------- MEMORY AND SCRATCH DISK ESTIMATES PER PROCESS --------------+
|                                                     Memory          Disk    |
| Model and support data                               31.9 MB         0.0 MB |
| Electronic energy minimisation requirements          13.6 MB         0.0 MB |
| Geometry minimisation requirements                   18.1 MB         0.0 MB |
|                                               ----------------------------- |
| Approx. total storage required per process           63.7 MB         0.0 MB |
|                                                                             |
| Requirements will fluctuate during execution and may exceed these estimates |
+-----------------------------------------------------------------------------+
 

 ******************************** Symmetrised Forces ********************************
 *                                                                                  *
 *                           Cartesian components (eV/A)                            *
 * -------------------------------------------------------------------------------- *
 *                         x                    y                    z              *
 *                                                                                  *
 * H               1      0.00000             -0.00000             -0.00000         *
 * H               2      0.00000              0.00000             -0.00000         *
 * H               3      0.00000             -0.00000              0.00000         *
 * H               4     -0.00000              0.00000              0.00000         *
 * H               5      0.00000             -0.00000             -0.00000         *
 * H               6      0.00000              0.00000             -0.00000         *
 * H               7      0.00000             -0.00000              0.00000         *
 * H               8     -0.00000              0.00000              0.00000         *
 *                                                                                  *
 ************************************************************************************

 *********** Symmetrised Stress Tensor ***********
 *                                               *
 *          Cartesian components (GPa)           *
 * --------------------------------------------- *
 *             x             y             z     *
 *                                               *
 *  x   -189.999730      0.000000      0.000000  *
 *  y      0.000000   -189.999741      0.000000  *
 *  z      0.000000      0.000000   -189.999726  *
 *                                               *
 *  Pressure:  189.9997                          *
 *                                               *
 *************************************************
 LBFGS: finished iteration     0 with enthalpy= -1.01325265E+002 eV
  
 +-----------+-----------------+-----------------+------------+-----+ <-- LBFGS
 | Parameter |      value      |    tolerance    |    units   | OK? | <-- LBFGS
 +-----------+-----------------+-----------------+------------+-----+ <-- LBFGS
 |  dE/ion   |   0.000000E+000 |   1.000000E-009 |         eV | No  | <-- LBFGS
 |  |F|max   |   7.069797E-008 |   1.000000E-005 |       eV/A | Yes | <-- LBFGS
 |  |dR|max  |   0.000000E+000 |   1.000000E-005 |          A | No  | <-- LBFGS
 |   Smax    |   9.999741E+000 |   1.000000E-005 |        GPa | No  | <-- LBFGS
 +-----------+-----------------+-----------------+------------+-----+ <-- LBFGS
  

================================================================================
 Starting LBFGS iteration          1 ...
================================================================================
  
 +------------+-------------+-------------+-----------------+ <-- min LBFGS
 |    Step    |   lambda    |   F.delta'  |    enthalpy     | <-- min LBFGS
 +------------+-------------+-------------+-----------------+ <-- min LBFGS
 |  previous  |    0.000000 |    0.055509 |     -101.325265 | <-- min LBFGS
 +------------+-------------+-------------+-----------------+ <-- min LBFGS
  

--------------------------------------------------------------------------------
 LBFGS: starting iteration         1 with trial guess (lambda=  1.000000)
--------------------------------------------------------------------------------
 
+---------------- MEMORY AND SCRATCH DISK ESTIMATES PER PROCESS --------------+
|                                                     Memory          Disk    |
| Model and support data                               32.1 MB         0.0 MB |
| Electronic energy minimisation requirements          13.8 MB         0.0 MB |
| Geometry minimisation requirements                   18.4 MB         0.0 MB |
|                                               ----------------------------- |
| Approx. total storage required per process           64.3 MB         0.0 MB |
|                                                                             |
| Requirements will fluctuate during execution and may exceed these estimates |
+-----------------------------------------------------------------------------+
 

                           -------------------------------
                                      Unit Cell
                           -------------------------------
        Real Lattice(A)              Reciprocal Lattice(1/A)
     1.7612781     0.0000000     0.0000000        3.567400932  -0.000000000   0.000000000
     0.0000000     2.9557259     0.0000000       -0.000000000   2.125767258   0.000000000
     0.0000000     0.0000000     2.7380464        0.000000000   0.000000000   2.294769492

                       Lattice parameters(A)       Cell Angles
                    a =      1.761278          alpha =   90.000000
                    b =      2.955726          beta  =   90.000000
                    c =      2.738046          gamma =   90.000000

                Current cell volume =            14.253874 A**3

                           -------------------------------
                                     Cell Contents
                           -------------------------------

            xxxxxxxxxxxxxxxxxxxxxxxxxxxxxxxxxxxxxxxxxxxxxxxxxxxxxxxxxxxxxxxxx
            x  Element         Atom        Fractional coordinates of atoms  x
            x                 Number           u          v          w      x
            x---------------------------------------------------------------x
            x  H                 1         0.000000   0.378743   0.446787   x
            x  H                 2         0.000000   0.121257   0.946787   x
            x  H                 3         0.000000   0.878743   0.053213   x
            x  H                 4        -0.000000   0.621257   0.553213   x
            x  H                 5         0.500000   0.878743   0.446787   x
            x  H                 6         0.500000   0.621257   0.946787   x
            x  H                 7         0.500000   0.378743   0.053213   x
            x  H                 8         0.500000   0.121257   0.553213   x
            xxxxxxxxxxxxxxxxxxxxxxxxxxxxxxxxxxxxxxxxxxxxxxxxxxxxxxxxxxxxxxxxx


------------------------------------------------------------------------ <-- SCF
SCF loop      Energy                           Energy gain       Timer   <-- SCF
                                               per atom          (sec)   <-- SCF
------------------------------------------------------------------------ <-- SCF
Initial  -1.17344746E+002                                         27.08  <-- SCF
      1  -1.17347168E+002                    3.02690706E-004      27.94  <-- SCF
      2  -1.17347182E+002                    1.77134696E-006      29.11  <-- SCF
      3  -1.17347163E+002                   -2.35488407E-006      30.25  <-- SCF
      4  -1.17347163E+002                   -2.01177480E-008      31.57  <-- SCF
      5  -1.17347163E+002                    4.11419986E-009      32.75  <-- SCF
      6  -1.17347163E+002                    3.86766538E-010      33.88  <-- SCF
      7  -1.17347163E+002                    8.24752309E-013      34.70  <-- SCF
      8  -1.17347163E+002                   -1.81264244E-013      35.56  <-- SCF
------------------------------------------------------------------------ <-- SCF
 
Final energy =  -117.3471631183     eV
(energy not corrected for finite basis set)
 

 ******************************** Symmetrised Forces ********************************
 *                                                                                  *
 *                           Cartesian components (eV/A)                            *
 * -------------------------------------------------------------------------------- *
 *                         x                    y                    z              *
 *                                                                                  *
 * H               1     -0.00000              0.09596              0.04357         *
 * H               2     -0.00000             -0.09596              0.04357         *
 * H               3      0.00000              0.09596             -0.04357         *
 * H               4     -0.00000             -0.09596             -0.04357         *
 * H               5     -0.00000              0.09596              0.04357         *
 * H               6      0.00000             -0.09596              0.04357         *
 * H               7      0.00000              0.09596             -0.04357         *
 * H               8     -0.00000             -0.09596             -0.04357         *
 *                                                                                  *
 ************************************************************************************

 *********** Symmetrised Stress Tensor ***********
 *                                               *
 *          Cartesian components (GPa)           *
 * --------------------------------------------- *
 *             x             y             z     *
 *                                               *
 *  x   -180.471909      0.000000      0.000000  *
 *  y      0.000000   -177.078789      0.000000  *
 *  z      0.000000      0.000000   -180.410505  *
 *                                               *
 *  Pressure:  179.3204                          *
 *                                               *
 *************************************************
  
 +------------+-------------+-------------+-----------------+ <-- min LBFGS
 |    Step    |   lambda    |   F.delta'  |    enthalpy     | <-- min LBFGS
 +------------+-------------+-------------+-----------------+ <-- min LBFGS
 |  previous  |    0.000000 |    0.055509 |     -101.325265 | <-- min LBFGS
 | trial step |    1.000000 |   -0.003823 |     -101.333340 | <-- min LBFGS
 +------------+-------------+-------------+-----------------+ <-- min LBFGS
  
 LBFGS: finished iteration     1 with enthalpy= -1.01333340E+002 eV
  
 +-----------+-----------------+-----------------+------------+-----+ <-- LBFGS
 | Parameter |      value      |    tolerance    |    units   | OK? | <-- LBFGS
 +-----------+-----------------+-----------------+------------+-----+ <-- LBFGS
 |  dE/ion   |   1.009417E-003 |   1.000000E-009 |         eV | No  | <-- LBFGS
 |  |F|max   |   1.053832E-001 |   1.000000E-005 |       eV/A | No  | <-- LBFGS
 |  |dR|max  |   6.902707E-009 |   1.000000E-005 |          A | Yes | <-- LBFGS
 |   Smax    |   2.921211E+000 |   1.000000E-005 |        GPa | No  | <-- LBFGS
 +-----------+-----------------+-----------------+------------+-----+ <-- LBFGS
  

================================================================================
 Starting LBFGS iteration          2 ...
================================================================================
  
 +------------+-------------+-------------+-----------------+ <-- min LBFGS
 |    Step    |   lambda    |   F.delta'  |    enthalpy     | <-- min LBFGS
 +------------+-------------+-------------+-----------------+ <-- min LBFGS
 |  previous  |    0.000000 |    0.028130 |     -101.333340 | <-- min LBFGS
 +------------+-------------+-------------+-----------------+ <-- min LBFGS
  

--------------------------------------------------------------------------------
 LBFGS: starting iteration         2 with trial guess (lambda=  1.000000)
--------------------------------------------------------------------------------
 
+---------------- MEMORY AND SCRATCH DISK ESTIMATES PER PROCESS --------------+
|                                                     Memory          Disk    |
| Model and support data                               32.2 MB         0.0 MB |
| Electronic energy minimisation requirements          13.9 MB         0.0 MB |
| Geometry minimisation requirements                   18.5 MB         0.0 MB |
|                                               ----------------------------- |
| Approx. total storage required per process           64.6 MB         0.0 MB |
|                                                                             |
| Requirements will fluctuate during execution and may exceed these estimates |
+-----------------------------------------------------------------------------+
 

                           -------------------------------
                                      Unit Cell
                           -------------------------------
        Real Lattice(A)              Reciprocal Lattice(1/A)
     1.7671750     0.0000000     0.0000000        3.555496985  -0.000000000   0.000000000
     0.0000000     2.9593248     0.0000000       -0.000000000   2.123182053   0.000000000
     0.0000000     0.0000000     2.7471079        0.000000000   0.000000000   2.287200038

                       Lattice parameters(A)       Cell Angles
                    a =      1.767175          alpha =   90.000000
                    b =      2.959325          beta  =   90.000000
                    c =      2.747108          gamma =   90.000000

                Current cell volume =            14.366398 A**3

                           -------------------------------
                                     Cell Contents
                           -------------------------------

            xxxxxxxxxxxxxxxxxxxxxxxxxxxxxxxxxxxxxxxxxxxxxxxxxxxxxxxxxxxxxxxxx
            x  Element         Atom        Fractional coordinates of atoms  x
            x                 Number           u          v          w      x
            x---------------------------------------------------------------x
            x  H                 1         0.000000   0.381729   0.448250   x
            x  H                 2         0.000000   0.118271   0.948250   x
            x  H                 3        -0.000000   0.881729   0.051750   x
            x  H                 4        -0.000000   0.618271   0.551750   x
            x  H                 5         0.500000   0.881729   0.448250   x
            x  H                 6         0.500000   0.618271   0.948250   x
            x  H                 7         0.500000   0.381729   0.051750   x
            x  H                 8         0.500000   0.118271   0.551750   x
            xxxxxxxxxxxxxxxxxxxxxxxxxxxxxxxxxxxxxxxxxxxxxxxxxxxxxxxxxxxxxxxxx


------------------------------------------------------------------------ <-- SCF
SCF loop      Energy                           Energy gain       Timer   <-- SCF
                                               per atom          (sec)   <-- SCF
------------------------------------------------------------------------ <-- SCF
Initial  -1.17392581E+002                                         36.64  <-- SCF
      1  -1.17472738E+002                    1.00196110E-002      37.53  <-- SCF
      2  -1.17473041E+002                    3.79540160E-005      38.67  <-- SCF
      3  -1.17468556E+002                   -5.60707049E-004      39.82  <-- SCF
      4  -1.17468334E+002                   -2.77583007E-005      41.08  <-- SCF
      5  -1.17468334E+002                    6.41106132E-008      42.20  <-- SCF
      6  -1.17468334E+002                    4.37673695E-009      43.37  <-- SCF
      7  -1.17468334E+002                    1.66521419E-011      44.20  <-- SCF
      8  -1.17468334E+002                    8.09646956E-013      45.03  <-- SCF
      9  -1.17468334E+002                   -1.29906041E-013      45.90  <-- SCF
------------------------------------------------------------------------ <-- SCF
 
Final energy =  -117.4683340845     eV
(energy not corrected for finite basis set)
 

 ******************************** Symmetrised Forces ********************************
 *                                                                                  *
 *                           Cartesian components (eV/A)                            *
 * -------------------------------------------------------------------------------- *
 *                         x                    y                    z              *
 *                                                                                  *
 * H               1     -0.00000             -0.22341             -0.09607         *
 * H               2     -0.00000              0.22341             -0.09607         *
 * H               3      0.00000             -0.22341              0.09607         *
 * H               4      0.00000              0.22341              0.09607         *
 * H               5     -0.00000             -0.22341             -0.09607         *
 * H               6     -0.00000              0.22341             -0.09607         *
 * H               7      0.00000             -0.22341              0.09607         *
 * H               8      0.00000              0.22341              0.09607         *
 *                                                                                  *
 ************************************************************************************

 *********** Symmetrised Stress Tensor ***********
 *                                               *
 *          Cartesian components (GPa)           *
 * --------------------------------------------- *
 *             x             y             z     *
 *                                               *
 *  x   -178.271872      0.000000      0.000000  *
 *  y      0.000000   -183.540239      0.000000  *
 *  z      0.000000      0.000000   -179.150012  *
 *                                               *
 *  Pressure:  180.3207                          *
 *                                               *
 *************************************************
  
 +------------+-------------+-------------+-----------------+ <-- min LBFGS
 |    Step    |   lambda    |   F.delta'  |    enthalpy     | <-- min LBFGS
 +------------+-------------+-------------+-----------------+ <-- min LBFGS
 |  previous  |    0.000000 |    0.028130 |     -101.333340 | <-- min LBFGS
 | trial step |    1.000000 |   -0.066770 |     -101.328093 | <-- min LBFGS
 +------------+-------------+-------------+-----------------+ <-- min LBFGS
  

--------------------------------------------------------------------------------
 LBFGS: improving iteration         2 with line minimization (lambda=  0.296419)
--------------------------------------------------------------------------------

                           -------------------------------
                                      Unit Cell
                           -------------------------------
        Real Lattice(A)              Reciprocal Lattice(1/A)
     1.7630261     0.0000000     0.0000000        3.563864075  -0.000000000   0.000000000
     0.0000000     2.9567927     0.0000000       -0.000000000   2.125000299   0.000000000
     0.0000000     0.0000000     2.7407324        0.000000000   0.000000000   2.292520545

                       Lattice parameters(A)       Cell Angles
                    a =      1.763026          alpha =   90.000000
                    b =      2.956793          beta  =   90.000000
                    c =      2.740732          gamma =   90.000000

                Current cell volume =            14.287171 A**3

                           -------------------------------
                                     Cell Contents
                           -------------------------------

            xxxxxxxxxxxxxxxxxxxxxxxxxxxxxxxxxxxxxxxxxxxxxxxxxxxxxxxxxxxxxxxxx
            x  Element         Atom        Fractional coordinates of atoms  x
            x                 Number           u          v          w      x
            x---------------------------------------------------------------x
            x  H                 1         0.000000   0.379628   0.447220   x
            x  H                 2         0.000000   0.120372   0.947220   x
            x  H                 3        -0.000000   0.879628   0.052780   x
            x  H                 4        -0.000000   0.620372   0.552780   x
            x  H                 5         0.500000   0.879628   0.447220   x
            x  H                 6         0.500000   0.620372   0.947220   x
            x  H                 7         0.500000   0.379628   0.052780   x
            x  H                 8         0.500000   0.120372   0.552780   x
            xxxxxxxxxxxxxxxxxxxxxxxxxxxxxxxxxxxxxxxxxxxxxxxxxxxxxxxxxxxxxxxxx


------------------------------------------------------------------------ <-- SCF
SCF loop      Energy                           Energy gain       Timer   <-- SCF
                                               per atom          (sec)   <-- SCF
------------------------------------------------------------------------ <-- SCF
Initial  -1.17347717E+002                                         46.94  <-- SCF
      1  -1.17388068E+002                    5.04390857E-003      47.89  <-- SCF
      2  -1.17388224E+002                    1.95072405E-005      49.02  <-- SCF
      3  -1.17385955E+002                   -2.83671736E-004      50.15  <-- SCF
      4  -1.17385843E+002                   -1.39152325E-005      51.39  <-- SCF
      5  -1.17385843E+002                    2.91778364E-008      52.54  <-- SCF
      6  -1.17385843E+002                    1.91709294E-009      53.68  <-- SCF
      7  -1.17385843E+002                    5.42584303E-012      54.51  <-- SCF
      8  -1.17385843E+002                    8.73089441E-013      55.32  <-- SCF
------------------------------------------------------------------------ <-- SCF
 
Final energy =  -117.3858434668     eV
(energy not corrected for finite basis set)
 

 ******************************** Symmetrised Forces ********************************
 *                                                                                  *
 *                           Cartesian components (eV/A)                            *
 * -------------------------------------------------------------------------------- *
 *                         x                    y                    z              *
 *                                                                                  *
 * H               1      0.00000              0.00673              0.00419         *
 * H               2     -0.00000             -0.00673              0.00419         *
 * H               3      0.00000              0.00673             -0.00419         *
 * H               4      0.00000             -0.00673             -0.00419         *
 * H               5      0.00000              0.00673              0.00419         *
 * H               6     -0.00000             -0.00673              0.00419         *
 * H               7      0.00000              0.00673             -0.00419         *
 * H               8      0.00000             -0.00673             -0.00419         *
 *                                                                                  *
 ************************************************************************************

 *********** Symmetrised Stress Tensor ***********
 *                                               *
 *          Cartesian components (GPa)           *
 * --------------------------------------------- *
 *             x             y             z     *
 *                                               *
 *  x   -179.772942     -0.000000      0.000000  *
 *  y     -0.000000   -178.937871      0.000000  *
 *  z      0.000000      0.000000   -179.952838  *
 *                                               *
 *  Pressure:  179.5546                          *
 *                                               *
 *************************************************
  
 +------------+-------------+-------------+-----------------+ <-- min LBFGS
 |    Step    |   lambda    |   F.delta'  |    enthalpy     | <-- min LBFGS
 +------------+-------------+-------------+-----------------+ <-- min LBFGS
 |  previous  |    0.000000 |    0.028130 |     -101.333340 | <-- min LBFGS
 | trial step |    1.000000 |   -0.066770 |     -101.328093 | <-- min LBFGS
 |  line step |    0.296419 |    0.001432 |     -101.334612 | <-- min LBFGS
 +------------+-------------+-------------+-----------------+ <-- min LBFGS
  
 LBFGS: finished iteration     2 with enthalpy= -1.01334612E+002 eV
  
 +-----------+-----------------+-----------------+------------+-----+ <-- LBFGS
 | Parameter |      value      |    tolerance    |    units   | OK? | <-- LBFGS
 +-----------+-----------------+-----------------+------------+-----+ <-- LBFGS
 |  dE/ion   |   1.589762E-004 |   1.000000E-009 |         eV | No  | <-- LBFGS
 |  |F|max   |   7.932679E-003 |   1.000000E-005 |       eV/A | No  | <-- LBFGS
 |  |dR|max  |   2.873773E-003 |   1.000000E-005 |          A | No  | <-- LBFGS
 |   Smax    |   1.062129E+000 |   1.000000E-005 |        GPa | No  | <-- LBFGS
 +-----------+-----------------+-----------------+------------+-----+ <-- LBFGS
  

================================================================================
 Starting LBFGS iteration          3 ...
================================================================================
  
 +------------+-------------+-------------+-----------------+ <-- min LBFGS
 |    Step    |   lambda    |   F.delta'  |    enthalpy     | <-- min LBFGS
 +------------+-------------+-------------+-----------------+ <-- min LBFGS
 |  previous  |    0.000000 |    0.003711 |     -101.334612 | <-- min LBFGS
 +------------+-------------+-------------+-----------------+ <-- min LBFGS
  

--------------------------------------------------------------------------------
 LBFGS: starting iteration         3 with trial guess (lambda=  1.000000)
--------------------------------------------------------------------------------

                           -------------------------------
                                      Unit Cell
                           -------------------------------
        Real Lattice(A)              Reciprocal Lattice(1/A)
     1.7627894     0.0000000     0.0000000        3.564342629  -0.000000000   0.000000000
     0.0000000     2.9551429     0.0000000       -0.000000000   2.126186651   0.000000000
     0.0000000     0.0000000     2.7407215        0.000000000   0.000000000   2.292529658

                       Lattice parameters(A)       Cell Angles
                    a =      1.762789          alpha =   90.000000
                    b =      2.955143          beta  =   90.000000
                    c =      2.740721          gamma =   90.000000

                Current cell volume =            14.277225 A**3

                           -------------------------------
                                     Cell Contents
                           -------------------------------

            xxxxxxxxxxxxxxxxxxxxxxxxxxxxxxxxxxxxxxxxxxxxxxxxxxxxxxxxxxxxxxxxx
            x  Element         Atom        Fractional coordinates of atoms  x
            x                 Number           u          v          w      x
            x---------------------------------------------------------------x
            x  H                 1         0.000000   0.379629   0.447264   x
            x  H                 2         0.000000   0.120371   0.947264   x
            x  H                 3        -0.000000   0.879629   0.052736   x
            x  H                 4        -0.000000   0.620371   0.552736   x
            x  H                 5         0.500000   0.879629   0.447264   x
            x  H                 6         0.500000   0.620371   0.947264   x
            x  H                 7         0.500000   0.379629   0.052736   x
            x  H                 8         0.500000   0.120371   0.552736   x
            xxxxxxxxxxxxxxxxxxxxxxxxxxxxxxxxxxxxxxxxxxxxxxxxxxxxxxxxxxxxxxxxx


------------------------------------------------------------------------ <-- SCF
SCF loop      Energy                           Energy gain       Timer   <-- SCF
                                               per atom          (sec)   <-- SCF
------------------------------------------------------------------------ <-- SCF
Initial  -1.17374681E+002                                         56.38  <-- SCF
      1  -1.17374705E+002                    3.06839953E-006      57.28  <-- SCF
      2  -1.17374705E+002                    1.53536706E-008      58.41  <-- SCF
      3  -1.17374706E+002                    2.32507162E-008      59.53  <-- SCF
      4  -1.17374706E+002                    2.60621125E-009      60.74  <-- SCF
      5  -1.17374706E+002                    1.77306641E-011      61.56  <-- SCF
      6  -1.17374706E+002                    1.60720963E-012      62.37  <-- SCF
      7  -1.17374706E+002                   -3.02107073E-014      63.19  <-- SCF
------------------------------------------------------------------------ <-- SCF
 
Final energy =  -117.3747055480     eV
(energy not corrected for finite basis set)
 

 ******************************** Symmetrised Forces ********************************
 *                                                                                  *
 *                           Cartesian components (eV/A)                            *
 * -------------------------------------------------------------------------------- *
 *                         x                    y                    z              *
 *                                                                                  *
 * H               1     -0.00000             -0.00104              0.00061         *
 * H               2     -0.00000              0.00104              0.00061         *
 * H               3      0.00000             -0.00104             -0.00061         *
 * H               4      0.00000              0.00104             -0.00061         *
 * H               5     -0.00000             -0.00104              0.00061         *
 * H               6     -0.00000              0.00104              0.00061         *
 * H               7      0.00000             -0.00104             -0.00061         *
 * H               8      0.00000              0.00104             -0.00061         *
 *                                                                                  *
 ************************************************************************************

 *********** Symmetrised Stress Tensor ***********
 *                                               *
 *          Cartesian components (GPa)           *
 * --------------------------------------------- *
 *             x             y             z     *
 *                                               *
 *  x   -180.076189     -0.000000      0.000000  *
 *  y     -0.000000   -179.765713      0.000000  *
 *  z      0.000000      0.000000   -180.158047  *
 *                                               *
 *  Pressure:  180.0000                          *
 *                                               *
 *************************************************
  
 +------------+-------------+-------------+-----------------+ <-- min LBFGS
 |    Step    |   lambda    |   F.delta'  |    enthalpy     | <-- min LBFGS
 +------------+-------------+-------------+-----------------+ <-- min LBFGS
 |  previous  |    0.000000 |    0.003711 |     -101.334612 | <-- min LBFGS
 | trial step |    1.000000 |    0.000700 |     -101.334648 | <-- min LBFGS
 +------------+-------------+-------------+-----------------+ <-- min LBFGS
  
 LBFGS: finished iteration     3 with enthalpy= -1.01334648E+002 eV
  
 +-----------+-----------------+-----------------+------------+-----+ <-- LBFGS
 | Parameter |      value      |    tolerance    |    units   | OK? | <-- LBFGS
 +-----------+-----------------+-----------------+------------+-----+ <-- LBFGS
 |  dE/ion   |   4.478827E-006 |   1.000000E-009 |         eV | No  | <-- LBFGS
 |  |F|max   |   1.204476E-003 |   1.000000E-005 |       eV/A | No  | <-- LBFGS
 |  |dR|max  |   1.190996E-004 |   1.000000E-005 |          A | No  | <-- LBFGS
 |   Smax    |   2.342871E-001 |   1.000000E-005 |        GPa | No  | <-- LBFGS
 +-----------+-----------------+-----------------+------------+-----+ <-- LBFGS
  

================================================================================
 Starting LBFGS iteration          4 ...
================================================================================
  
 +------------+-------------+-------------+-----------------+ <-- min LBFGS
 |    Step    |   lambda    |   F.delta'  |    enthalpy     | <-- min LBFGS
 +------------+-------------+-------------+-----------------+ <-- min LBFGS
 |  previous  |    0.000000 |    0.001002 |     -101.334648 | <-- min LBFGS
 +------------+-------------+-------------+-----------------+ <-- min LBFGS
  

--------------------------------------------------------------------------------
 LBFGS: starting iteration         4 with trial guess (lambda=  1.000000)
--------------------------------------------------------------------------------

                           -------------------------------
                                      Unit Cell
                           -------------------------------
        Real Lattice(A)              Reciprocal Lattice(1/A)
     1.7628844     0.0000000     0.0000000        3.564150507  -0.000000000   0.000000000
     0.0000000     2.9543954     0.0000000       -0.000000000   2.126724583   0.000000000
     0.0000000     0.0000000     2.7410913        0.000000000   0.000000000   2.292220406

                       Lattice parameters(A)       Cell Angles
                    a =      1.762884          alpha =   90.000000
                    b =      2.954395          beta  =   90.000000
                    c =      2.741091          gamma =   90.000000

                Current cell volume =            14.276309 A**3

                           -------------------------------
                                     Cell Contents
                           -------------------------------

            xxxxxxxxxxxxxxxxxxxxxxxxxxxxxxxxxxxxxxxxxxxxxxxxxxxxxxxxxxxxxxxxx
            x  Element         Atom        Fractional coordinates of atoms  x
            x                 Number           u          v          w      x
            x---------------------------------------------------------------x
            x  H                 1         0.000000   0.379595   0.447299   x
            x  H                 2         0.000000   0.120405   0.947299   x
            x  H                 3         0.000000   0.879595   0.052701   x
            x  H                 4        -0.000000   0.620405   0.552701   x
            x  H                 5         0.500000   0.879595   0.447299   x
            x  H                 6         0.500000   0.620405   0.947299   x
            x  H                 7         0.500000   0.379595   0.052701   x
            x  H                 8         0.500000   0.120405   0.552701   x
            xxxxxxxxxxxxxxxxxxxxxxxxxxxxxxxxxxxxxxxxxxxxxxxxxxxxxxxxxxxxxxxxx


------------------------------------------------------------------------ <-- SCF
SCF loop      Energy                           Energy gain       Timer   <-- SCF
                                               per atom          (sec)   <-- SCF
------------------------------------------------------------------------ <-- SCF
Initial  -1.17373664E+002                                         64.27  <-- SCF
      1  -1.17373682E+002                    2.26034823E-006      65.15  <-- SCF
      2  -1.17373682E+002                    1.22045548E-008      66.31  <-- SCF
      3  -1.17373682E+002                    1.42465871E-008      67.44  <-- SCF
      4  -1.17373682E+002                    1.24706779E-009      68.57  <-- SCF
      5  -1.17373682E+002                    1.75222102E-011      69.39  <-- SCF
      6  -1.17373682E+002                    1.51053536E-012      70.21  <-- SCF
      7  -1.17373682E+002                   -3.92739195E-013      71.02  <-- SCF
------------------------------------------------------------------------ <-- SCF
 
Final energy =  -117.3736822726     eV
(energy not corrected for finite basis set)
 

 ******************************** Symmetrised Forces ********************************
 *                                                                                  *
 *                           Cartesian components (eV/A)                            *
 * -------------------------------------------------------------------------------- *
 *                         x                    y                    z              *
 *                                                                                  *
 * H               1      0.00000             -0.00131              0.00030         *
 * H               2      0.00000              0.00131              0.00030         *
 * H               3      0.00000             -0.00131             -0.00030         *
 * H               4      0.00000              0.00131             -0.00030         *
 * H               5      0.00000             -0.00131              0.00030         *
 * H               6      0.00000              0.00131              0.00030         *
 * H               7      0.00000             -0.00131             -0.00030         *
 * H               8      0.00000              0.00131             -0.00030         *
 *                                                                                  *
 ************************************************************************************

 *********** Symmetrised Stress Tensor ***********
 *                                               *
 *          Cartesian components (GPa)           *
 * --------------------------------------------- *
 *             x             y             z     *
 *                                               *
 *  x   -180.074923      0.000000      0.000000  *
 *  y      0.000000   -179.986769      0.000000  *
 *  z      0.000000      0.000000   -180.083019  *
 *                                               *
 *  Pressure:  180.0482                          *
 *                                               *
 *************************************************
  
 +------------+-------------+-------------+-----------------+ <-- min LBFGS
 |    Step    |   lambda    |   F.delta'  |    enthalpy     | <-- min LBFGS
 +------------+-------------+-------------+-----------------+ <-- min LBFGS
 |  previous  |    0.000000 |    0.001002 |     -101.334648 | <-- min LBFGS
 | trial step |    1.000000 |    0.000333 |     -101.334654 | <-- min LBFGS
 +------------+-------------+-------------+-----------------+ <-- min LBFGS
  

--------------------------------------------------------------------------------
 LBFGS: improving iteration         4 with line minimization (lambda=  1.497701)
--------------------------------------------------------------------------------

                           -------------------------------
                                      Unit Cell
                           -------------------------------
        Real Lattice(A)              Reciprocal Lattice(1/A)
     1.7629317     0.0000000     0.0000000        3.564054895  -0.000000000   0.000000000
     0.0000000     2.9540234     0.0000000       -0.000000000   2.126992413   0.000000000
     0.0000000     0.0000000     2.7412753        0.000000000   0.000000000   2.292066522

                       Lattice parameters(A)       Cell Angles
                    a =      1.762932          alpha =   90.000000
                    b =      2.954023          beta  =   90.000000
                    c =      2.741275          gamma =   90.000000

                Current cell volume =            14.275853 A**3

                           -------------------------------
                                     Cell Contents
                           -------------------------------

            xxxxxxxxxxxxxxxxxxxxxxxxxxxxxxxxxxxxxxxxxxxxxxxxxxxxxxxxxxxxxxxxx
            x  Element         Atom        Fractional coordinates of atoms  x
            x                 Number           u          v          w      x
            x---------------------------------------------------------------x
            x  H                 1         0.000000   0.379578   0.447317   x
            x  H                 2         0.000000   0.120422   0.947317   x
            x  H                 3         0.000000   0.879578   0.052683   x
            x  H                 4        -0.000000   0.620422   0.552683   x
            x  H                 5         0.500000   0.879578   0.447317   x
            x  H                 6         0.500000   0.620422   0.947317   x
            x  H                 7         0.500000   0.379578   0.052683   x
            x  H                 8         0.500000   0.120422   0.552683   x
            xxxxxxxxxxxxxxxxxxxxxxxxxxxxxxxxxxxxxxxxxxxxxxxxxxxxxxxxxxxxxxxxx


------------------------------------------------------------------------ <-- SCF
SCF loop      Energy                           Energy gain       Timer   <-- SCF
                                               per atom          (sec)   <-- SCF
------------------------------------------------------------------------ <-- SCF
Initial  -1.17373166E+002                                         72.07  <-- SCF
      1  -1.17373170E+002                    5.78617336E-007      72.96  <-- SCF
      2  -1.17373170E+002                    3.02624280E-009      74.12  <-- SCF
      3  -1.17373170E+002                    3.53996682E-009      75.27  <-- SCF
      4  -1.17373170E+002                    3.09106894E-010      76.25  <-- SCF
      5  -1.17373170E+002                    4.70682820E-012      77.06  <-- SCF
      6  -1.17373170E+002                    3.44402063E-013      77.88  <-- SCF
------------------------------------------------------------------------ <-- SCF
 
Final energy =  -117.3731702326     eV
(energy not corrected for finite basis set)
 

 ******************************** Symmetrised Forces ********************************
 *                                                                                  *
 *                           Cartesian components (eV/A)                            *
 * -------------------------------------------------------------------------------- *
 *                         x                    y                    z              *
 *                                                                                  *
 * H               1     -0.00000             -0.00144              0.00014         *
 * H               2      0.00000              0.00144              0.00014         *
 * H               3     -0.00000             -0.00144             -0.00014         *
 * H               4     -0.00000              0.00144             -0.00014         *
 * H               5      0.00000             -0.00144              0.00014         *
 * H               6      0.00000              0.00144              0.00014         *
 * H               7     -0.00000             -0.00144             -0.00014         *
 * H               8      0.00000              0.00144             -0.00014         *
 *                                                                                  *
 ************************************************************************************

 *********** Symmetrised Stress Tensor ***********
 *                                               *
 *          Cartesian components (GPa)           *
 * --------------------------------------------- *
 *             x             y             z     *
 *                                               *
 *  x   -180.074409     -0.000000      0.000000  *
 *  y     -0.000000   -180.096700      0.000000  *
 *  z      0.000000      0.000000   -180.045821  *
 *                                               *
 *  Pressure:  180.0723                          *
 *                                               *
 *************************************************
  
 +------------+-------------+-------------+-----------------+ <-- min LBFGS
 |    Step    |   lambda    |   F.delta'  |    enthalpy     | <-- min LBFGS
 +------------+-------------+-------------+-----------------+ <-- min LBFGS
 |  previous  |    0.000000 |    0.001002 |     -101.334648 | <-- min LBFGS
 | trial step |    1.000000 |    0.000333 |     -101.334654 | <-- min LBFGS
 |  line step |    1.497701 |  4.153E-007 |     -101.334655 | <-- min LBFGS
 +------------+-------------+-------------+-----------------+ <-- min LBFGS
  
 LBFGS: finished iteration     4 with enthalpy= -1.01334655E+002 eV
  
 +-----------+-----------------+-----------------+------------+-----+ <-- LBFGS
 | Parameter |      value      |    tolerance    |    units   | OK? | <-- LBFGS
 +-----------+-----------------+-----------------+------------+-----+ <-- LBFGS
 |  dE/ion   |   8.160324E-007 |   1.000000E-009 |         eV | No  | <-- LBFGS
 |  |F|max   |   1.446851E-003 |   1.000000E-005 |       eV/A | No  | <-- LBFGS
 |  |dR|max  |   2.104107E-004 |   1.000000E-005 |          A | No  | <-- LBFGS
 |   Smax    |   9.669970E-002 |   1.000000E-005 |        GPa | No  | <-- LBFGS
 +-----------+-----------------+-----------------+------------+-----+ <-- LBFGS
  

================================================================================
 Starting LBFGS iteration          5 ...
================================================================================
  
 +------------+-------------+-------------+-----------------+ <-- min LBFGS
 |    Step    |   lambda    |   F.delta'  |    enthalpy     | <-- min LBFGS
 +------------+-------------+-------------+-----------------+ <-- min LBFGS
 |  previous  |    0.000000 |    0.000433 |     -101.334655 | <-- min LBFGS
 +------------+-------------+-------------+-----------------+ <-- min LBFGS
  

--------------------------------------------------------------------------------
 LBFGS: starting iteration         5 with trial guess (lambda=  1.000000)
--------------------------------------------------------------------------------

                           -------------------------------
                                      Unit Cell
                           -------------------------------
        Real Lattice(A)              Reciprocal Lattice(1/A)
     1.7630158     0.0000000     0.0000000        3.563884759  -0.000000000   0.000000000
     0.0000000     2.9540683     0.0000000       -0.000000000   2.126960100   0.000000000
     0.0000000     0.0000000     2.7413709        0.000000000   0.000000000   2.291986612

                       Lattice parameters(A)       Cell Angles
                    a =      1.763016          alpha =   90.000000
                    b =      2.954068          beta  =   90.000000
                    c =      2.741371          gamma =   90.000000

                Current cell volume =            14.277249 A**3

                           -------------------------------
                                     Cell Contents
                           -------------------------------

            xxxxxxxxxxxxxxxxxxxxxxxxxxxxxxxxxxxxxxxxxxxxxxxxxxxxxxxxxxxxxxxxx
            x  Element         Atom        Fractional coordinates of atoms  x
            x                 Number           u          v          w      x
            x---------------------------------------------------------------x
            x  H                 1         0.000000   0.379562   0.447341   x
            x  H                 2         0.000000   0.120438   0.947341   x
            x  H                 3         0.000000   0.879562   0.052659   x
            x  H                 4        -0.000000   0.620438   0.552659   x
            x  H                 5         0.500000   0.879562   0.447341   x
            x  H                 6         0.500000   0.620438   0.947341   x
            x  H                 7         0.500000   0.379562   0.052659   x
            x  H                 8         0.500000   0.120438   0.552659   x
            xxxxxxxxxxxxxxxxxxxxxxxxxxxxxxxxxxxxxxxxxxxxxxxxxxxxxxxxxxxxxxxxx


------------------------------------------------------------------------ <-- SCF
SCF loop      Energy                           Energy gain       Timer   <-- SCF
                                               per atom          (sec)   <-- SCF
------------------------------------------------------------------------ <-- SCF
Initial  -1.17374736E+002                                         78.96  <-- SCF
      1  -1.17374740E+002                    4.05093607E-007      79.82  <-- SCF
      2  -1.17374740E+002                    1.53392449E-009      80.97  <-- SCF
      3  -1.17374740E+002                    1.93496861E-009      82.10  <-- SCF
      4  -1.17374740E+002                    1.22018026E-010      82.99  <-- SCF
      5  -1.17374740E+002                    2.65854224E-012      83.90  <-- SCF
      6  -1.17374740E+002                    8.39857663E-013      84.72  <-- SCF
------------------------------------------------------------------------ <-- SCF
 
Final energy =  -117.3747396288     eV
(energy not corrected for finite basis set)
 

 ******************************** Symmetrised Forces ********************************
 *                                                                                  *
 *                           Cartesian components (eV/A)                            *
 * -------------------------------------------------------------------------------- *
 *                         x                    y                    z              *
 *                                                                                  *
 * H               1     -0.00000             -0.00048              0.00042         *
 * H               2      0.00000              0.00048              0.00042         *
 * H               3     -0.00000             -0.00048             -0.00042         *
 * H               4     -0.00000              0.00048             -0.00042         *
 * H               5      0.00000             -0.00048              0.00042         *
 * H               6      0.00000              0.00048              0.00042         *
 * H               7     -0.00000             -0.00048             -0.00042         *
 * H               8     -0.00000              0.00048             -0.00042         *
 *                                                                                  *
 ************************************************************************************

 *********** Symmetrised Stress Tensor ***********
 *                                               *
 *          Cartesian components (GPa)           *
 * --------------------------------------------- *
 *             x             y             z     *
 *                                               *
 *  x   -180.020022      0.000000      0.000000  *
 *  y      0.000000   -180.033785      0.000000  *
 *  z      0.000000      0.000000   -179.995701  *
 *                                               *
 *  Pressure:  180.0165                          *
 *                                               *
 *************************************************
  
 +------------+-------------+-------------+-----------------+ <-- min LBFGS
 |    Step    |   lambda    |   F.delta'  |    enthalpy     | <-- min LBFGS
 +------------+-------------+-------------+-----------------+ <-- min LBFGS
 |  previous  |    0.000000 |    0.000433 |     -101.334655 | <-- min LBFGS
 | trial step |    1.000000 |    0.000187 |     -101.334655 | <-- min LBFGS
 +------------+-------------+-------------+-----------------+ <-- min LBFGS
  

--------------------------------------------------------------------------------
 LBFGS: improving iteration         5 with line minimization (lambda=  1.763068)
--------------------------------------------------------------------------------

                           -------------------------------
                                      Unit Cell
                           -------------------------------
        Real Lattice(A)              Reciprocal Lattice(1/A)
     1.7630801     0.0000000     0.0000000        3.563754945  -0.000000000   0.000000000
     0.0000000     2.9541025     0.0000000       -0.000000000   2.126935444   0.000000000
     0.0000000     0.0000000     2.7414438        0.000000000   0.000000000   2.291925638

                       Lattice parameters(A)       Cell Angles
                    a =      1.763080          alpha =   90.000000
                    b =      2.954102          beta  =   90.000000
                    c =      2.741444          gamma =   90.000000

                Current cell volume =            14.278314 A**3

                           -------------------------------
                                     Cell Contents
                           -------------------------------

            xxxxxxxxxxxxxxxxxxxxxxxxxxxxxxxxxxxxxxxxxxxxxxxxxxxxxxxxxxxxxxxxx
            x  Element         Atom        Fractional coordinates of atoms  x
            x                 Number           u          v          w      x
            x---------------------------------------------------------------x
            x  H                 1         0.000000   0.379550   0.447360   x
            x  H                 2         0.000000   0.120450   0.947360   x
            x  H                 3         0.000000   0.879550   0.052640   x
            x  H                 4        -0.000000   0.620450   0.552640   x
            x  H                 5         0.500000   0.879550   0.447360   x
            x  H                 6         0.500000   0.620450   0.947360   x
            x  H                 7         0.500000   0.379550   0.052640   x
            x  H                 8         0.500000   0.120450   0.552640   x
            xxxxxxxxxxxxxxxxxxxxxxxxxxxxxxxxxxxxxxxxxxxxxxxxxxxxxxxxxxxxxxxxx


------------------------------------------------------------------------ <-- SCF
SCF loop      Energy                           Energy gain       Timer   <-- SCF
                                               per atom          (sec)   <-- SCF
------------------------------------------------------------------------ <-- SCF
Initial  -1.17375935E+002                                         85.76  <-- SCF
      1  -1.17375937E+002                    2.58396460E-007      86.62  <-- SCF
      2  -1.17375937E+002                    8.97850137E-010      87.77  <-- SCF
      3  -1.17375937E+002                    1.12515852E-009      88.90  <-- SCF
      4  -1.17375937E+002                    7.09619304E-011      89.73  <-- SCF
      5  -1.17375937E+002                    1.62533605E-012      90.86  <-- SCF
      6  -1.17375937E+002                    1.60116749E-013      91.85  <-- SCF
------------------------------------------------------------------------ <-- SCF
 
Final energy =  -117.3759368926     eV
(energy not corrected for finite basis set)
 

 ******************************** Symmetrised Forces ********************************
 *                                                                                  *
 *                           Cartesian components (eV/A)                            *
 * -------------------------------------------------------------------------------- *
 *                         x                    y                    z              *
 *                                                                                  *
 * H               1     -0.00000              0.00025              0.00063         *
 * H               2      0.00000             -0.00025              0.00063         *
 * H               3      0.00000              0.00025             -0.00063         *
 * H               4     -0.00000             -0.00025             -0.00063         *
 * H               5     -0.00000              0.00025              0.00063         *
 * H               6      0.00000             -0.00025              0.00063         *
 * H               7      0.00000              0.00025             -0.00063         *
 * H               8     -0.00000             -0.00025             -0.00063         *
 *                                                                                  *
 ************************************************************************************

 *********** Symmetrised Stress Tensor ***********
 *                                               *
 *          Cartesian components (GPa)           *
 * --------------------------------------------- *
 *             x             y             z     *
 *                                               *
 *  x   -179.978523      0.000000      0.000000  *
 *  y      0.000000   -179.985799      0.000000  *
 *  z      0.000000      0.000000   -179.957477  *
 *                                               *
 *  Pressure:  179.9739                          *
 *                                               *
 *************************************************
  
 +------------+-------------+-------------+-----------------+ <-- min LBFGS
 |    Step    |   lambda    |   F.delta'  |    enthalpy     | <-- min LBFGS
 +------------+-------------+-------------+-----------------+ <-- min LBFGS
 |  previous  |    0.000000 |    0.000433 |     -101.334655 | <-- min LBFGS
 | trial step |    1.000000 |    0.000187 |     -101.334655 | <-- min LBFGS
 |  line step |    1.763068 |  5.749E-008 |     -101.334656 | <-- min LBFGS
 +------------+-------------+-------------+-----------------+ <-- min LBFGS
  
 LBFGS: finished iteration     5 with enthalpy= -1.01334656E+002 eV
  
 +-----------+-----------------+-----------------+------------+-----+ <-- LBFGS
 | Parameter |      value      |    tolerance    |    units   | OK? | <-- LBFGS
 +-----------+-----------------+-----------------+------------+-----+ <-- LBFGS
 |  dE/ion   |   1.372090E-007 |   1.000000E-009 |         eV | No  | <-- LBFGS
 |  |F|max   |   6.789633E-004 |   1.000000E-005 |       eV/A | No  | <-- LBFGS
 |  |dR|max  |   1.432713E-004 |   1.000000E-005 |          A | No  | <-- LBFGS
 |   Smax    |   4.252285E-002 |   1.000000E-005 |        GPa | No  | <-- LBFGS
 +-----------+-----------------+-----------------+------------+-----+ <-- LBFGS
  

================================================================================
 Starting LBFGS iteration          6 ...
================================================================================
  
 +------------+-------------+-------------+-----------------+ <-- min LBFGS
 |    Step    |   lambda    |   F.delta'  |    enthalpy     | <-- min LBFGS
[...]
            x  H                 1         0.000000   0.379517   0.447451   x
            x  H                 2         0.000000   0.120483   0.947451   x
            x  H                 3         0.000000   0.879517   0.052549   x
            x  H                 4        -0.000000   0.620483   0.552549   x
            x  H                 5         0.500000   0.879517   0.447451   x
            x  H                 6         0.500000   0.620483   0.947451   x
            x  H                 7         0.500000   0.379517   0.052549   x
            x  H                 8         0.500000   0.120483   0.552549   x
            xxxxxxxxxxxxxxxxxxxxxxxxxxxxxxxxxxxxxxxxxxxxxxxxxxxxxxxxxxxxxxxxx


------------------------------------------------------------------------ <-- SCF
SCF loop      Energy                           Energy gain       Timer   <-- SCF
                                               per atom          (sec)   <-- SCF
------------------------------------------------------------------------ <-- SCF
Initial  -1.17375221E+002                                        123.49  <-- SCF
      1  -1.17375221E+002                    2.93345968E-012     124.05  <-- SCF
      2  -1.17375221E+002                    1.38969254E-013     124.87  <-- SCF
      3  -1.17375221E+002                    2.50748871E-013     125.69  <-- SCF
      4  -1.17375221E+002                   -2.53769941E-013     126.50  <-- SCF
------------------------------------------------------------------------ <-- SCF
 
Final energy =  -117.3752209402     eV
(energy not corrected for finite basis set)
 

 ******************************** Symmetrised Forces ********************************
 *                                                                                  *
 *                           Cartesian components (eV/A)                            *
 * -------------------------------------------------------------------------------- *
 *                         x                    y                    z              *
 *                                                                                  *
 * H               1     -0.00000              0.00000              0.00000         *
 * H               2     -0.00000             -0.00000              0.00000         *
 * H               3      0.00000              0.00000             -0.00000         *
 * H               4      0.00000             -0.00000             -0.00000         *
 * H               5     -0.00000              0.00000              0.00000         *
 * H               6     -0.00000             -0.00000              0.00000         *
 * H               7     -0.00000              0.00000             -0.00000         *
 * H               8      0.00000             -0.00000             -0.00000         *
 *                                                                                  *
 ************************************************************************************

 *********** Symmetrised Stress Tensor ***********
 *                                               *
 *          Cartesian components (GPa)           *
 * --------------------------------------------- *
 *             x             y             z     *
 *                                               *
 *  x   -180.000025     -0.000000      0.000000  *
 *  y     -0.000000   -179.999977      0.000000  *
 *  z      0.000000      0.000000   -180.000010  *
 *                                               *
 *  Pressure:  180.0000                          *
 *                                               *
 *************************************************
  
 +------------+-------------+-------------+-----------------+ <-- min LBFGS
 |    Step    |   lambda    |   F.delta'  |    enthalpy     | <-- min LBFGS
 +------------+-------------+-------------+-----------------+ <-- min LBFGS
 |  previous  |    0.000000 |  5.006E-007 |     -101.334656 | <-- min LBFGS
 | trial step |    1.000000 | -1.766E-007 |     -101.334656 | <-- min LBFGS
 +------------+-------------+-------------+-----------------+ <-- min LBFGS
  
 LBFGS: finished iteration     9 with enthalpy= -1.01334656E+002 eV
  
 +-----------+-----------------+-----------------+------------+-----+ <-- LBFGS
 | Parameter |      value      |    tolerance    |    units   | OK? | <-- LBFGS
 +-----------+-----------------+-----------------+------------+-----+ <-- LBFGS
 |  dE/ion   |   4.002919E-013 |   1.000000E-009 |         eV | Yes | <-- LBFGS
 |  |F|max   |   9.024137E-007 |   1.000000E-005 |       eV/A | Yes | <-- LBFGS
 |  |dR|max  |   2.109742E-007 |   1.000000E-005 |          A | Yes | <-- LBFGS
 |   Smax    |   2.517474E-005 |   1.000000E-005 |        GPa | No  | <-- LBFGS
 +-----------+-----------------+-----------------+------------+-----+ <-- LBFGS
  

================================================================================
 Starting LBFGS iteration         10 ...
================================================================================
  
 +------------+-------------+-------------+-----------------+ <-- min LBFGS
 |    Step    |   lambda    |   F.delta'  |    enthalpy     | <-- min LBFGS
 +------------+-------------+-------------+-----------------+ <-- min LBFGS
 |  previous  |    0.000000 |  1.350E-007 |     -101.334656 | <-- min LBFGS
 +------------+-------------+-------------+-----------------+ <-- min LBFGS
  

--------------------------------------------------------------------------------
 LBFGS: starting iteration        10 with trial guess (lambda=  1.000000)
--------------------------------------------------------------------------------

                           -------------------------------
                                      Unit Cell
                           -------------------------------
        Real Lattice(A)              Reciprocal Lattice(1/A)
     1.7630588     0.0000000     0.0000000        3.563797998  -0.000000000   0.000000000
     0.0000000     2.9541238     0.0000000       -0.000000000   2.126920127   0.000000000
     0.0000000     0.0000000     2.7413348        0.000000000   0.000000000   2.292016779

                       Lattice parameters(A)       Cell Angles
                    a =      1.763059          alpha =   90.000000
                    b =      2.954124          beta  =   90.000000
                    c =      2.741335          gamma =   90.000000

                Current cell volume =            14.277677 A**3

                           -------------------------------
                                     Cell Contents
                           -------------------------------

            xxxxxxxxxxxxxxxxxxxxxxxxxxxxxxxxxxxxxxxxxxxxxxxxxxxxxxxxxxxxxxxxx
            x  Element         Atom        Fractional coordinates of atoms  x
            x                 Number           u          v          w      x
            x---------------------------------------------------------------x
            x  H                 1         0.000000   0.379517   0.447451   x
            x  H                 2         0.000000   0.120483   0.947451   x
            x  H                 3         0.000000   0.879517   0.052549   x
            x  H                 4        -0.000000   0.620483   0.552549   x
            x  H                 5         0.500000   0.879517   0.447451   x
            x  H                 6         0.500000   0.620483   0.947451   x
            x  H                 7         0.500000   0.379517   0.052549   x
            x  H                 8         0.500000   0.120483   0.552549   x
            xxxxxxxxxxxxxxxxxxxxxxxxxxxxxxxxxxxxxxxxxxxxxxxxxxxxxxxxxxxxxxxxx


------------------------------------------------------------------------ <-- SCF
SCF loop      Energy                           Energy gain       Timer   <-- SCF
                                               per atom          (sec)   <-- SCF
------------------------------------------------------------------------ <-- SCF
Initial  -1.17375221E+002                                        127.57  <-- SCF
      1  -1.17375221E+002                    4.22949902E-013     128.13  <-- SCF
      2  -1.17375221E+002                    2.41685658E-014     128.95  <-- SCF
      3  -1.17375221E+002                   -2.20538163E-013     129.76  <-- SCF
      4  -1.17375221E+002                    2.20538163E-013     130.58  <-- SCF
------------------------------------------------------------------------ <-- SCF
 
Final energy =  -117.3752213499     eV
(energy not corrected for finite basis set)
 

 ******************************** Symmetrised Forces ********************************
 *                                                                                  *
 *                           Cartesian components (eV/A)                            *
 * -------------------------------------------------------------------------------- *
 *                         x                    y                    z              *
 *                                                                                  *
 * H               1      0.00000             -0.00000              0.00000         *
 * H               2      0.00000              0.00000              0.00000         *
 * H               3      0.00000             -0.00000             -0.00000         *
 * H               4      0.00000              0.00000             -0.00000         *
 * H               5      0.00000             -0.00000              0.00000         *
 * H               6      0.00000              0.00000              0.00000         *
 * H               7      0.00000             -0.00000             -0.00000         *
 * H               8      0.00000              0.00000             -0.00000         *
 *                                                                                  *
 ************************************************************************************

 *********** Symmetrised Stress Tensor ***********
 *                                               *
 *          Cartesian components (GPa)           *
 * --------------------------------------------- *
 *             x             y             z     *
 *                                               *
 *  x   -179.999993      0.000000      0.000000  *
 *  y      0.000000   -180.000006      0.000000  *
 *  z      0.000000      0.000000   -180.000000  *
 *                                               *
 *  Pressure:  180.0000                          *
 *                                               *
 *************************************************
  
 +------------+-------------+-------------+-----------------+ <-- min LBFGS
 |    Step    |   lambda    |   F.delta'  |    enthalpy     | <-- min LBFGS
 +------------+-------------+-------------+-----------------+ <-- min LBFGS
 |  previous  |    0.000000 |  1.350E-007 |     -101.334656 | <-- min LBFGS
 | trial step |    1.000000 | -2.670E-008 |     -101.334656 | <-- min LBFGS
 +------------+-------------+-------------+-----------------+ <-- min LBFGS
  
 LBFGS: finished iteration    10 with enthalpy= -1.01334656E+002 eV
  
 +-----------+-----------------+-----------------+------------+-----+ <-- LBFGS
 | Parameter |      value      |    tolerance    |    units   | OK? | <-- LBFGS
 +-----------+-----------------+-----------------+------------+-----+ <-- LBFGS
 |  dE/ion   |   1.163112E-013 |   1.000000E-009 |         eV | Yes | <-- LBFGS
 |  |F|max   |   1.029602E-007 |   1.000000E-005 |       eV/A | Yes | <-- LBFGS
 |  |dR|max  |   9.181849E-008 |   1.000000E-005 |          A | Yes | <-- LBFGS
 |   Smax    |   7.046879E-006 |   1.000000E-005 |        GPa | Yes | <-- LBFGS
 +-----------+-----------------+-----------------+------------+-----+ <-- LBFGS
  
 LBFGS: Geometry optimization completed successfully.

================================================================================
 LBFGS: Final Configuration:
================================================================================

                           -------------------------------
                                      Unit Cell
                           -------------------------------
        Real Lattice(A)              Reciprocal Lattice(1/A)
     1.7630588     0.0000000     0.0000000        3.563797998  -0.000000000   0.000000000
     0.0000000     2.9541238     0.0000000       -0.000000000   2.126920127   0.000000000
     0.0000000     0.0000000     2.7413348        0.000000000   0.000000000   2.292016779

                       Lattice parameters(A)       Cell Angles
                    a =      1.763059          alpha =   90.000000
                    b =      2.954124          beta  =   90.000000
                    c =      2.741335          gamma =   90.000000

                Current cell volume =            14.277677 A**3

                           -------------------------------
                                     Cell Contents
                           -------------------------------

            xxxxxxxxxxxxxxxxxxxxxxxxxxxxxxxxxxxxxxxxxxxxxxxxxxxxxxxxxxxxxxxxx
            x  Element         Atom        Fractional coordinates of atoms  x
            x                 Number           u          v          w      x
            x---------------------------------------------------------------x
            x  H                 1         0.000000   0.379517   0.447451   x
            x  H                 2         0.000000   0.120483   0.947451   x
            x  H                 3         0.000000   0.879517   0.052549   x
            x  H                 4        -0.000000   0.620483   0.552549   x
            x  H                 5         0.500000   0.879517   0.447451   x
            x  H                 6         0.500000   0.620483   0.947451   x
            x  H                 7         0.500000   0.379517   0.052549   x
            x  H                 8         0.500000   0.120483   0.552549   x
            xxxxxxxxxxxxxxxxxxxxxxxxxxxxxxxxxxxxxxxxxxxxxxxxxxxxxxxxxxxxxxxxx


 LBFGS: Final Enthalpy     = -1.01334656E+002 eV
 LBFGS: Final <frequency>  =     733.41995 cm-1
 LBFGS: Final bulk modulus =     461.72808 GPa

 ******************************** Symmetrised Forces ********************************
 *                                                                                  *
 *                           Cartesian components (eV/A)                            *
 * -------------------------------------------------------------------------------- *
 *                         x                    y                    z              *
 *                                                                                  *
 * H               1      0.00000             -0.00000              0.00000         *
 * H               2      0.00000              0.00000              0.00000         *
 * H               3      0.00000             -0.00000             -0.00000         *
 * H               4      0.00000              0.00000             -0.00000         *
 * H               5      0.00000             -0.00000              0.00000         *
 * H               6      0.00000              0.00000              0.00000         *
 * H               7      0.00000             -0.00000             -0.00000         *
 * H               8      0.00000              0.00000             -0.00000         *
 *                                                                                  *
 ************************************************************************************

 *********** Symmetrised Stress Tensor ***********
 *                                               *
 *          Cartesian components (GPa)           *
 * --------------------------------------------- *
 *             x             y             z     *
 *                                               *
 *  x   -179.999993      0.000000      0.000000  *
 *  y      0.000000   -180.000006      0.000000  *
 *  z      0.000000      0.000000   -180.000000  *
 *                                               *
 *  Pressure:  180.0000                          *
 *                                               *
 *************************************************

 Pseudo atomic calculation performed for H 1s1

 Converged in 24 iterations to a total energy of -12.4855 eV

Charge spilling parameter for spin component 1 = 0.57%

            Orbital Populations       
     Ion    Atom   Orbital             Charge
  -------------------------------------------
      H     1      S                    0.997
      H     2      S                    1.003
      H     3      S                    1.003
      H     4      S                    0.997
      H     5      S                    0.997
      H     6      S                    1.003
      H     7      S                    1.003
      H     8      S                    0.997
  -------------------------------------------
                           Total:       8.000
  -------------------------------------------

     Atomic Populations (Mulliken)
     -----------------------------
Species          Ion     s      p      d      f     Total  Charge (e)
=====================================================================
  H               1     1.00   0.00   0.00   0.00   1.00     0.00
  H               2     1.00   0.00   0.00   0.00   1.00     0.00
  H               3     1.00   0.00   0.00   0.00   1.00     0.00
  H               4     1.00   0.00   0.00   0.00   1.00     0.00
  H               5     1.00   0.00   0.00   0.00   1.00     0.00
  H               6     1.00   0.00   0.00   0.00   1.00     0.00
  H               7     1.00   0.00   0.00   0.00   1.00     0.00
  H               8     1.00   0.00   0.00   0.00   1.00     0.00
=====================================================================

                 Bond                   Population      Length (A)
======================================================================
               H 2 -- H 3                    1.07        0.76794
               H 6 -- H 7                    1.07        0.76794
               H 5 -- H 8                    1.07        0.76794
               H 1 -- H 4                    1.07        0.76794
               H 3 -- H 6                    0.25        1.20235
               H 2 -- H 7                    0.25        1.20235
               H 4 -- H 5                    0.25        1.20235
               H 1 -- H 8                    0.25        1.20235
               H 3 -- H 5                   -0.11        1.39608
               H 1 -- H 7                   -0.11        1.39608
               H 4 -- H 6                   -0.11        1.39608
               H 2 -- H 8                   -0.11        1.39608
               H 5 -- H 6                   -0.18        1.56980
               H 1 -- H 2                   -0.18        1.56980
               H 7 -- H 8                   -0.18        1.56980
               H 3 -- H 4                   -0.18        1.56980
               H 4 -- H 8                   -0.65        1.72012
               H 3 -- H 7                   -0.65        1.72012
               H 2 -- H 6                   -0.65        1.72012
               H 1 -- H 5                   -0.65        1.72012
======================================================================


Writing analysis data to Cmca4.castep_bin

Writing model to Cmca4.check
 
 A BibTeX formatted list of references used in this run has been written to 
 Cmca4.bib
 
Initialisation time =      4.18 s
Calculation time    =    128.79 s
Finalisation time   =      4.11 s
Total time          =    137.08 s
Peak Memory Use     = 542024 kB
  
Overall parallel efficiency rating: Excellent (92%)                             
  
Data was distributed by:-
k-point (32-way); efficiency rating: Excellent (93%)                            
  
Parallel notes:
1) Calculation only took 133.0 s, so efficiency estimates may be inaccurate.    
