 +-------------------------------------------------+
 |                                                 |
 |      CCC   AA    SSS  TTTTT  EEEEE  PPPP        |
 |     C     A  A  S       T    E      P   P       |
 |     C     AAAA   SS     T    EEE    PPPP        |
 |     C     A  A     S    T    E      P           |
 |      CCC  A  A  SSS     T    EEEEE  P           |
 |                                                 |
 +-------------------------------------------------+
 |                                                 |
 | Welcome to Academic Release CASTEP version 18.1 |          
 | Ab Initio Total Energy Program                  |
 |                                                 |
 | Authors:                                        |
 | M. Segall, M. Probert, C. Pickard, P. Hasnip,   |
 | S. Clark, K. Refson, J. R. Yates, M. Payne      |
 |                                                 |
 | Contributors:                                   |
 | P. Lindan, P. Haynes, J. White, V. Milman,      |
 | N. Govind, M. Gibson, P. Tulip, V. Cocula,      |
 | B. Montanari, D. Quigley, M. Glover,            |
 | L. Bernasconi, A. Perlov, M. Plummer,           |
 | E. McNellis, J. Meyer, J. Gale, D. Jochym       |
 | J. Aarons, B. Walker, R. Gillen, D. Jones       |
 | T. Green, I. J. Bush, C. J. Armstrong,          |
 | E. J. Higgins, E. L. Brown, M. S. McFly,        |
 | J. Wilkins, B-C. Shih, P. J. P. Byrne           |
 |                                                 |
 | Copyright (c) 2000 - 2017                       |
 |                                                 |
 |     Distributed under the terms of an           |
 |     Agreement between the United Kingdom        |
 |     Car-Parrinello (UKCP) Consortium,           |
 |     Daresbury Laboratory and Accelrys, Inc.     |
 |                                                 |
 | Please cite                                     |
 |                                                 |
 |     "First principles methods using CASTEP"     |
 |                                                 |
 |         Zeitschrift fuer Kristallographie       |
 |           220(5-6) pp. 567-570 (2005)           |
 |                                                 |
 | S. J. Clark, M. D. Segall, C. J. Pickard,       |
 | P. J. Hasnip, M. J. Probert, K. Refson,         |
 | M. C. Payne                                     |
 |                                                 |
 |       in all publications arising from          |
 |              your use of CASTEP                 |
 |                                                 |
 +-------------------------------------------------+


 Compiled for linux_x86_64_gfortran4.8 on Thu, 19 Jul 2018 15:42:32 +0100
 from code version 70483bd0ad64+  Sun, 10 Dec 2017 12:18:29 +0000
 Compiler: GNU Fortran 4.8.5; Optimisation: fast
 MATHLIBS: Intel MKL(2018.0.0) (LAPACK version 3.7.0)
 FFT Lib : mkl
 Fundamental constants values: CODATA 2014

 Run started: Thu, 27 Aug 2020 16:53:42 +0100

 Atomic calculation performed for H: 1s1

 Converged in 41 iterations to an ae energy of -12.488 eV

   ============================================================                
   | Pseudopotential Report - Date of generation 27-08-2020   |                
   ------------------------------------------------------------                
   | Element: H Ionic charge:  1.00 Level of theory: PBE      |                
   | Atomic Solver: Koelling-Harmon                           |                
   |                                                          |                
   |               Reference Electronic Structure             |                
   |         Orbital         Occupation         Energy        |                
   |            1s              1.000           -0.239        |                
   |                                                          |                
   |                 Pseudopotential Definition               |                
   |        Beta     l      e      Rc     scheme   norm       |                
   |         loc     0   -0.239   0.702     qc      1         |                
   |                                                          |                
   | No charge augmentation                                   |                
   | No partial core correction                               |                
   ------------------------------------------------------------                
   | "0|0.7|2|6|8|10L(qc=10)"                                 |                
   ------------------------------------------------------------                
   |      Author: Chris J. Pickard, Cambridge University      |                
   ============================================================                

 Pseudo atomic calculation performed for H 1s1

 Converged in 24 iterations to a total energy of -12.4855 eV

 Calculation parallelised over 32 processes.
 Data is distributed by k-point(32-way)

 ************************************ Title ************************************
 

 ***************************** General Parameters ******************************
  
 output verbosity                               : normal  (1)
 write checkpoint data to                       : Pbcn.check
 type of calculation                            : geometry optimization
 stress calculation                             : on
 density difference calculation                 : off
 electron localisation func (ELF) calculation   : off
 Hirshfeld analysis                             : off
 unlimited duration calculation
 timing information                             : on
 memory usage estimate                          : on
 write extra output files                       : on
 write final potential to formatted file        : off
 write final density to formatted file          : off
 write structure in CELL formatted file         : on
 write BibTeX reference list                    : on
 write OTFG pseudopotential files               : on
 write electrostatic potential file             : on
 write bands file                               : on
 checkpoint writing                             : both castep_bin and check files
  
 output         length unit                     : A
 output           mass unit                     : amu
 output           time unit                     : ps
 output         charge unit                     : e
 output           spin unit                     : hbar/2
 output         energy unit                     : eV
 output          force unit                     : eV/A
 output       velocity unit                     : A/ps
 output       pressure unit                     : GPa
 output     inv_length unit                     : 1/A
 output      frequency unit                     : cm-1
 output force constant unit                     : eV/A**2
 output         volume unit                     : A**3
 output   IR intensity unit                     : (D/A)**2/amu
 output         dipole unit                     : D
 output         efield unit                     : eV/A/e
 output        entropy unit                     : J/mol/K
  
 wavefunctions paging                           : none
 random number generator seed                   : randomised (165342248)
 data distribution                              : optimal for this architecture
 optimization strategy                          : maximize speed(+++)

 *********************** Exchange-Correlation Parameters ***********************
  
 using functional                               : Perdew Burke Ernzerhof
 relativistic treatment                         : Koelling-Harmon
 DFT+D: Semi-empirical dispersion correction    : off

 ************************* Pseudopotential Parameters **************************
  
 pseudopotential representation                 : reciprocal space
 <beta|phi> representation                      : reciprocal space
 spin-orbit coupling                            : off

 **************************** Basis Set Parameters *****************************
  
 plane wave basis set cut-off                   :  1600.0000   eV
 size of standard grid                          :     2.0000
 size of   fine   gmax                          :    40.9853   1/A
 finite basis set correction                    : automatic
 number of sample energies                      :          3
           sample  spacing                      :     5.0000   eV

 **************************** Electronic Parameters ****************************
  
 number of  electrons                           :  48.00    
 net charge of system                           :  0.000    
 treating system as non-spin-polarized
 number of bands                                :         24

 ********************* Electronic Minimization Parameters **********************
  
 Method: Treating system as non-metallic,
         and number of  SD  steps               :          1
         and number of  CG  steps               :          4
  
 total energy / atom convergence tol.           : 0.1000E-10   eV
 eigen-energy convergence tolerance             : 0.2000E-10   eV
 max force / atom convergence tol.              : ignored
 convergence tolerance window                   :          3   cycles
 max. number of SCF cycles                      :        100
 periodic dipole correction                     : NONE

 ************************** Density Mixing Parameters **************************
  
 density-mixing scheme                          : Broyden
 max. length of mixing history                  :         20
 charge density mixing amplitude                : 0.8000    
 cut-off energy for mixing                      :  1600.       eV

 *********************** Population Analysis Parameters ************************
  
 Population analysis with cutoff                :  3.000       A
 Population analysis output                     : summary and pdos components

 ********************** Geometry Optimization Parameters ***********************
  
 optimization method                            : LBFGS
 max. no. of LBFGS updates                      : unbounded
 variable cell method                           : fixed basis quality
 max. number of steps                           :        100
 estimated bulk modulus                         :  500.0       GPa
 estimated <frequency>                          :  1668.       cm-1
 geom line minimiser                            : on
 with line minimiser tolerance                  :     0.4000
 total energy convergence tolerance             : 0.1000E-08   eV/atom
        max ionic |force| tolerance             : 0.1000E-04   eV/A
 max ionic |displacement| tolerance             : 0.1000E-04   A
   max |stress component| tolerance             : 0.1000E-04   GPa
 convergence tolerance window                   :          2   steps
 backup results every                           :      14400   seconds
 write geom trajectory file                     : on

 *******************************************************************************
  

                           -------------------------------
                                      Unit Cell
                           -------------------------------
        Real Lattice(A)                      Reciprocal Lattice(1/A)
     2.8239812     0.0000000     0.0000000        2.224938818  -0.000000000   0.000000000
     0.0000000     4.9164355     0.0000000       -0.000000000   1.277996083   0.000000000
     0.0000000     0.0000000     5.0543404        0.000000000   0.000000000   1.243126654

                       Lattice parameters(A)       Cell Angles
                    a =      2.823981          alpha =   90.000000
                    b =      4.916435          beta  =   90.000000
                    c =      5.054340          gamma =   90.000000

                       Current cell volume =            70.174064       A**3
                                   density =             0.689444   AMU/A**3
                                           =             1.144849     g/cm^3

                           -------------------------------
                                     Cell Contents
                           -------------------------------
                         Total number of ions in cell =   48
                      Total number of species in cell =    1
                        Max number of any one species =   48

            xxxxxxxxxxxxxxxxxxxxxxxxxxxxxxxxxxxxxxxxxxxxxxxxxxxxxxxxxxxx
            x  Element    Atom        Fractional coordinates of atoms  x
            x            Number           u          v          w      x
            x----------------------------------------------------------x
            x  H            1         0.404528   0.113433   0.010886   x 
            x  H            2         0.585631   0.216258   0.015713   x 
            x  H            3         0.583798   0.554767   0.003144   x 
            x  H            4         0.147001   0.171525   0.249474   x 
            x  H            5         0.316536   0.341674   0.246630   x 
            x  H            6         0.170104   0.487747   0.250829   x 
            x  H            7         0.170104   0.512253   0.750829   x 
            x  H            8         0.316536   0.658326   0.746630   x 
            x  H            9         0.147001   0.828475   0.749474   x 
            x  H           10         0.583798   0.445233   0.503144   x 
            x  H           11         0.585631   0.783742   0.515713   x 
            x  H           12         0.404528   0.886567   0.510886   x 
            x  H           13         0.329896   0.987747   0.250829   x 
            x  H           14         0.183464   0.841674   0.246630   x 
            x  H           15         0.352999   0.671525   0.249474   x 
            x  H           16        -0.083798   0.054767   0.003144   x 
            x  H           17        -0.085631   0.716258   0.015713   x 
            x  H           18         0.095472   0.613433   0.010886   x 
            x  H           19         0.670104   0.987747   0.249171   x 
            x  H           20         0.816536   0.841674   0.253370   x 
            x  H           21         0.647001   0.671525   0.250526   x 
            x  H           22         1.083798   0.054767   0.496856   x 
            x  H           23         1.085631   0.716258   0.484287   x 
            x  H           24         0.904528   0.613433   0.489114   x 
            x  H           25         0.829896   0.512253   0.749171   x 
            x  H           26         0.683464   0.658326   0.753370   x 
            x  H           27         0.852999   0.828475   0.750526   x 
            x  H           28         0.416202   0.445233  -0.003144   x 
            x  H           29         0.414369   0.783742   0.984287   x 
            x  H           30         0.595472   0.886567   0.989114   x 
            x  H           31         0.829896   0.487747   0.249171   x 
            x  H           32         0.683464   0.341674   0.253370   x 
            x  H           33         0.852999   0.171525   0.250526   x 
            x  H           34         0.416202   0.554767   0.496856   x 
            x  H           35         0.414369   0.216258   0.484287   x 
            x  H           36         0.595472   0.113433   0.489114   x 
            x  H           37         0.670104   0.012253   0.749171   x 
            x  H           38         0.816536   0.158326   0.753370   x 
            x  H           39         0.647001   0.328475   0.750526   x 
            x  H           40         0.083798  -0.054767  -0.003144   x 
            x  H           41         1.085631   0.283742   0.984287   x 
            x  H           42         0.904528   0.386567   0.989114   x 
            x  H           43         0.329896   0.012253   0.750829   x 
            x  H           44         0.183464   0.158326   0.746630   x 
            x  H           45         0.352999   0.328475   0.749474   x 
            x  H           46         0.916202  -0.054767   0.503144   x 
            x  H           47        -0.085631   0.283742   0.515713   x 
            x  H           48         0.095472   0.386567   0.510886   x 
            xxxxxxxxxxxxxxxxxxxxxxxxxxxxxxxxxxxxxxxxxxxxxxxxxxxxxxxxxxxx


                         No user defined ionic velocities

                           -------------------------------
                                   Details of Species
                           -------------------------------

                               Mass of species in AMU
                                    H    1.0078250

                          Electric Quadrupole Moment (Barn)
                                    H    0.0028600 Isotope  2

                          Files used for pseudopotentials:
                                    H 0|0.7|2|6|8|10L(qc=10)

                           -------------------------------
                              k-Points For BZ Sampling
                           -------------------------------
                       MP grid size for SCF calculation is 12 12 12
                            with an offset of   0.000  0.000  0.000
                       Number of kpoints used =           216

                           -------------------------------
                               Symmetry and Constraints
                           -------------------------------

                      Maximum deviation from symmetry = 0.982501E-14     ANG

                      Number of symmetry operations   =           8
                      Number of ionic constraints     =           3
                      Point group of crystal =     8: D2h, mmm, 2/m 2/m 2/m
                      Space group of crystal =    60: Pbcn, -P 2n 2ab

             Set iprint > 1 for details on symmetry rotations/translations

                         Centre of mass is constrained
             Set iprint > 1 for details of linear ionic constraints

                         Number of cell constraints= 3
                         Cell constraints are:  1 2 3 0 0 0

                         External pressure/stress (GPa)
                        270.00000   0.00000   0.00000
                                  270.00000   0.00000
                                            270.00000
  
+---------------- MEMORY AND SCRATCH DISK ESTIMATES PER PROCESS --------------+
|                                                     Memory          Disk    |
| Baseline code, static data and system overhead      479.0 MB         0.0 MB |
| BLAS internal memory storage                          0.0 MB         0.0 MB |
| Model and support data                               91.3 MB         0.0 MB |
| Electronic energy minimisation requirements         109.0 MB         0.0 MB |
| Force calculation requirements                       23.7 MB         0.0 MB |
| Stress calculation requirements                      30.1 MB         0.0 MB |
|                                               ----------------------------- |
| Approx. total storage required per process          679.4 MB         0.0 MB |
|                                                                             |
| Requirements will fluctuate during execution and may exceed these estimates |
+-----------------------------------------------------------------------------+
Calculating finite basis set correction with  3 cut-off energies.
Calculating total energy with cut-off of 1590.000 eV.
------------------------------------------------------------------------ <-- SCF
SCF loop      Energy                           Energy gain       Timer   <-- SCF
                                               per atom          (sec)   <-- SCF
------------------------------------------------------------------------ <-- SCF
Initial   1.05576765E+003                                         12.22  <-- SCF
      1  -5.76040745E+002                    3.39960083E+001      26.44  <-- SCF
      2  -6.81318397E+002                    2.19328441E+000      36.49  <-- SCF
      3  -6.82317811E+002                    2.08211367E-002      51.46  <-- SCF
      4  -6.82311082E+002                   -1.40186694E-004      66.40  <-- SCF
      5  -6.82311721E+002                    1.33108024E-005      81.24  <-- SCF
      6  -6.82311766E+002                    9.25451686E-007      96.15  <-- SCF
      7  -6.82311766E+002                    1.55347183E-008     111.04  <-- SCF
      8  -6.82311767E+002                    5.79330593E-010     125.83  <-- SCF
      9  -6.82311767E+002                    1.58888180E-011     136.83  <-- SCF
     10  -6.82311767E+002                    7.93534578E-013     147.45  <-- SCF
     11  -6.82311767E+002                    2.65854224E-013     157.98  <-- SCF
------------------------------------------------------------------------ <-- SCF
 
Final energy =  -682.3117665030     eV
(energy not corrected for finite basis set)
 
Calculating total energy with cut-off of 1595.000 eV.
------------------------------------------------------------------------ <-- SCF
SCF loop      Energy                           Energy gain       Timer   <-- SCF
                                               per atom          (sec)   <-- SCF
------------------------------------------------------------------------ <-- SCF
Initial  -6.82311767E+002                                        164.35  <-- SCF
      1  -6.82311907E+002                    2.92150609E-006     177.01  <-- SCF
      2  -6.82311907E+002                    2.08252476E-012     188.57  <-- SCF
      3  -6.82311907E+002                    5.33297532E-010     200.18  <-- SCF
      4  -6.82311907E+002                    2.92620911E-011     211.83  <-- SCF
      5  -6.82311907E+002                    8.43885757E-013     223.49  <-- SCF
      6  -6.82311907E+002                    7.35127211E-013     235.04  <-- SCF
------------------------------------------------------------------------ <-- SCF
 
Final energy =  -682.3119067625     eV
(energy not corrected for finite basis set)
 
Calculating total energy with cut-off of 1600.000 eV.
------------------------------------------------------------------------ <-- SCF
SCF loop      Energy                           Energy gain       Timer   <-- SCF
                                               per atom          (sec)   <-- SCF
------------------------------------------------------------------------ <-- SCF
Initial  -6.82311907E+002                                        241.53  <-- SCF
      1  -6.82312037E+002                    2.71091048E-006     254.26  <-- SCF
      2  -6.82312037E+002                    2.01203311E-012     265.92  <-- SCF
      3  -6.82312037E+002                    4.89230180E-010     277.52  <-- SCF
      4  -6.82312037E+002                    2.70003161E-011     289.14  <-- SCF
      5  -6.82312037E+002                    9.34517879E-013     300.63  <-- SCF
      6  -6.82312037E+002                   -3.52458252E-013     312.21  <-- SCF
------------------------------------------------------------------------ <-- SCF
 
Final energy =  -682.3120369111     eV
(energy not corrected for finite basis set)
 
 For future reference: finite basis dEtot/dlog(Ecut) =      -0.043216eV
 Total energy corrected for finite basis set =    -682.312038 eV
 
+---------------- MEMORY AND SCRATCH DISK ESTIMATES PER PROCESS --------------+
|                                                     Memory          Disk    |
| Model and support data                               92.9 MB         0.0 MB |
| Electronic energy minimisation requirements         109.0 MB         0.0 MB |
| Geometry minimisation requirements                  138.9 MB         0.0 MB |
|                                               ----------------------------- |
| Approx. total storage required per process          340.8 MB         0.0 MB |
|                                                                             |
| Requirements will fluctuate during execution and may exceed these estimates |
+-----------------------------------------------------------------------------+
 

 ******************************** Symmetrised Forces ********************************
 *                                                                                  *
 *                           Cartesian components (eV/A)                            *
 * -------------------------------------------------------------------------------- *
 *                         x                    y                    z              *
 *                                                                                  *
 * H               1     -0.00000              0.00000             -0.00000         *
 * H               2      0.00000              0.00000              0.00000         *
 * H               3     -0.00000              0.00000              0.00000         *
 * H               4     -0.00000             -0.00000              0.00000         *
 * H               5      0.00000             -0.00000             -0.00000         *
 * H               6      0.00000             -0.00000             -0.00000         *
 * H               7      0.00000              0.00000             -0.00000         *
 * H               8      0.00000              0.00000             -0.00000         *
 * H               9     -0.00000              0.00000              0.00000         *
 * H              10     -0.00000             -0.00000              0.00000         *
 * H              11      0.00000             -0.00000              0.00000         *
 * H              12     -0.00000             -0.00000             -0.00000         *
 * H              13     -0.00000             -0.00000             -0.00000         *
 * H              14     -0.00000             -0.00000             -0.00000         *
 * H              15      0.00000             -0.00000              0.00000         *
 * H              16      0.00000              0.00000              0.00000         *
 * H              17     -0.00000              0.00000              0.00000         *
 * H              18      0.00000              0.00000             -0.00000         *
 * H              19      0.00000             -0.00000              0.00000         *
 * H              20      0.00000             -0.00000              0.00000         *
 * H              21     -0.00000             -0.00000             -0.00000         *
 * H              22     -0.00000              0.00000             -0.00000         *
 * H              23      0.00000              0.00000             -0.00000         *
 * H              24     -0.00000              0.00000              0.00000         *
 * H              25     -0.00000              0.00000              0.00000         *
 * H              26     -0.00000              0.00000              0.00000         *
 * H              27      0.00000              0.00000             -0.00000         *
 * H              28      0.00000             -0.00000             -0.00000         *
 * H              29     -0.00000             -0.00000             -0.00000         *
 * H              30      0.00000             -0.00000              0.00000         *
 * H              31     -0.00000             -0.00000              0.00000         *
 * H              32     -0.00000             -0.00000              0.00000         *
 * H              33      0.00000             -0.00000             -0.00000         *
 * H              34      0.00000              0.00000             -0.00000         *
 * H              35     -0.00000              0.00000             -0.00000         *
 * H              36      0.00000              0.00000              0.00000         *
 * H              37      0.00000              0.00000              0.00000         *
 * H              38      0.00000              0.00000              0.00000         *
 * H              39     -0.00000              0.00000             -0.00000         *
 * H              40     -0.00000             -0.00000             -0.00000         *
 * H              41      0.00000             -0.00000             -0.00000         *
 * H              42     -0.00000             -0.00000              0.00000         *
 * H              43     -0.00000              0.00000             -0.00000         *
 * H              44     -0.00000              0.00000             -0.00000         *
 * H              45      0.00000              0.00000              0.00000         *
 * H              46      0.00000             -0.00000              0.00000         *
 * H              47     -0.00000             -0.00000              0.00000         *
 * H              48      0.00000             -0.00000             -0.00000         *
 *                                                                                  *
 ************************************************************************************

 *********** Symmetrised Stress Tensor ***********
 *                                               *
 *          Cartesian components (GPa)           *
 * --------------------------------------------- *
 *             x             y             z     *
 *                                               *
 *  x   -299.999510      0.000000      0.000000  *
 *  y      0.000000   -299.999513      0.000000  *
 *  z      0.000000      0.000000   -299.999512  *
 *                                               *
 *  Pressure:  299.9995                          *
 *                                               *
 *************************************************
 LBFGS: finished iteration     0 with enthalpy= -5.64054181E+002 eV
  
 +-----------+-----------------+-----------------+------------+-----+ <-- LBFGS
 | Parameter |      value      |    tolerance    |    units   | OK? | <-- LBFGS
 +-----------+-----------------+-----------------+------------+-----+ <-- LBFGS
 |  dE/ion   |   0.000000E+000 |   1.000000E-009 |         eV | No  | <-- LBFGS
 |  |F|max   |   6.317638E-007 |   1.000000E-005 |       eV/A | Yes | <-- LBFGS
 |  |dR|max  |   0.000000E+000 |   1.000000E-005 |          A | No  | <-- LBFGS
 |   Smax    |   2.999951E+001 |   1.000000E-005 |        GPa | No  | <-- LBFGS
 +-----------+-----------------+-----------------+------------+-----+ <-- LBFGS
  

================================================================================
 Starting LBFGS iteration          1 ...
================================================================================
  
 +------------+-------------+-------------+-----------------+ <-- min LBFGS
 |    Step    |   lambda    |   F.delta'  |    enthalpy     | <-- min LBFGS
 +------------+-------------+-------------+-----------------+ <-- min LBFGS
 |  previous  |    0.000000 |    0.836354 |     -564.054181 | <-- min LBFGS
 +------------+-------------+-------------+-----------------+ <-- min LBFGS
  

--------------------------------------------------------------------------------
 LBFGS: starting iteration         1 with trial guess (lambda=  1.000000)
--------------------------------------------------------------------------------
 
+---------------- MEMORY AND SCRATCH DISK ESTIMATES PER PROCESS --------------+
|                                                     Memory          Disk    |
| Model and support data                               95.1 MB         0.0 MB |
| Electronic energy minimisation requirements         114.5 MB         0.0 MB |
| Geometry minimisation requirements                  146.0 MB         0.0 MB |
|                                               ----------------------------- |
| Approx. total storage required per process          355.5 MB         0.0 MB |
|                                                                             |
| Requirements will fluctuate during execution and may exceed these estimates |
+-----------------------------------------------------------------------------+
 

                           -------------------------------
                                      Unit Cell
                           -------------------------------
        Real Lattice(A)              Reciprocal Lattice(1/A)
     2.8804599     0.0000000     0.0000000        2.181313266  -0.000000000   0.000000000
     0.0000000     5.0147626     0.0000000       -0.000000000   1.252937736   0.000000000
     0.0000000     0.0000000     5.1554256        0.000000000   0.000000000   1.218752010

                       Lattice parameters(A)       Cell Angles
                    a =      2.880460          alpha =   90.000000
                    b =      5.014763          beta  =   90.000000
                    c =      5.155426          gamma =   90.000000

                Current cell volume =            74.469207 A**3

                           -------------------------------
                                     Cell Contents
                           -------------------------------

            xxxxxxxxxxxxxxxxxxxxxxxxxxxxxxxxxxxxxxxxxxxxxxxxxxxxxxxxxxxxxxxxx
            x  Element         Atom        Fractional coordinates of atoms  x
            x                 Number           u          v          w      x
            x---------------------------------------------------------------x
            x  H                 1         0.404528   0.113433   0.010886   x
            x  H                 2         0.585631   0.216258   0.015713   x
            x  H                 3         0.583798   0.554767   0.003144   x
            x  H                 4         0.147001   0.171525   0.249474   x
            x  H                 5         0.316536   0.341674   0.246630   x
            x  H                 6         0.170104   0.487747   0.250829   x
            x  H                 7         0.170104   0.512253   0.750829   x
            x  H                 8         0.316536   0.658326   0.746630   x
            x  H                 9         0.147001   0.828475   0.749474   x
            x  H                10         0.583798   0.445233   0.503144   x
            x  H                11         0.585631   0.783742   0.515713   x
            x  H                12         0.404528   0.886567   0.510886   x
            x  H                13         0.329896   0.987747   0.250829   x
            x  H                14         0.183464   0.841674   0.246630   x
            x  H                15         0.352999   0.671525   0.249474   x
            x  H                16        -0.083798   0.054767   0.003144   x
            x  H                17        -0.085631   0.716258   0.015713   x
            x  H                18         0.095472   0.613433   0.010886   x
            x  H                19         0.670104   0.987747   0.249171   x
            x  H                20         0.816536   0.841674   0.253370   x
            x  H                21         0.647001   0.671525   0.250526   x
            x  H                22         1.083798   0.054767   0.496856   x
            x  H                23         1.085631   0.716258   0.484287   x
            x  H                24         0.904528   0.613433   0.489114   x
            x  H                25         0.829896   0.512253   0.749171   x
            x  H                26         0.683464   0.658326   0.753370   x
            x  H                27         0.852999   0.828475   0.750526   x
            x  H                28         0.416202   0.445233  -0.003144   x
            x  H                29         0.414369   0.783742   0.984287   x
            x  H                30         0.595472   0.886567   0.989114   x
            x  H                31         0.829896   0.487747   0.249171   x
            x  H                32         0.683464   0.341674   0.253370   x
            x  H                33         0.852999   0.171525   0.250526   x
            x  H                34         0.416202   0.554767   0.496856   x
            x  H                35         0.414369   0.216258   0.484287   x
            x  H                36         0.595472   0.113433   0.489114   x
            x  H                37         0.670104   0.012253   0.749171   x
            x  H                38         0.816536   0.158326   0.753370   x
            x  H                39         0.647001   0.328475   0.750526   x
            x  H                40         0.083798  -0.054767  -0.003144   x
            x  H                41         1.085631   0.283742   0.984287   x
            x  H                42         0.904528   0.386567   0.989114   x
            x  H                43         0.329896   0.012253   0.750829   x
            x  H                44         0.183464   0.158326   0.746630   x
            x  H                45         0.352999   0.328475   0.749474   x
            x  H                46         0.916202  -0.054767   0.503144   x
            x  H                47        -0.085631   0.283742   0.515713   x
            x  H                48         0.095472   0.386567   0.510886   x
            xxxxxxxxxxxxxxxxxxxxxxxxxxxxxxxxxxxxxxxxxxxxxxxxxxxxxxxxxxxxxxxxx


------------------------------------------------------------------------ <-- SCF
SCF loop      Energy                           Energy gain       Timer   <-- SCF
                                               per atom          (sec)   <-- SCF
------------------------------------------------------------------------ <-- SCF
Initial  -6.89620545E+002                                        329.58  <-- SCF
      1  -6.89737332E+002                    2.43306312E-003     342.48  <-- SCF
      2  -6.89737897E+002                    1.17699259E-005     359.40  <-- SCF
      3  -6.89737820E+002                   -1.59797457E-006     375.80  <-- SCF
      4  -6.89737864E+002                    9.18119986E-007     392.42  <-- SCF
      5  -6.89737865E+002                    1.73918752E-008     408.75  <-- SCF
      6  -6.89737865E+002                    1.72490652E-009     425.25  <-- SCF
      7  -6.89737865E+002                    9.91716818E-012     437.12  <-- SCF
      8  -6.89737865E+002                    3.68570629E-013     448.72  <-- SCF
      9  -6.89737865E+002                   -2.31615423E-013     460.30  <-- SCF
------------------------------------------------------------------------ <-- SCF
 
Final energy =  -689.7378654179     eV
(energy not corrected for finite basis set)
 

 ******************************** Symmetrised Forces ********************************
 *                                                                                  *
 *                           Cartesian components (eV/A)                            *
 * -------------------------------------------------------------------------------- *
 *                         x                    y                    z              *
 *                                                                                  *
 * H               1      0.25246              0.25275              0.00694         *
 * H               2     -0.25442             -0.25190             -0.01756         *
 * H               3     -0.23807             -0.27263             -0.01729         *
 * H               4     -0.15427              0.03432              0.00191         *
 * H               5     -0.10542              0.11585              0.00942         *
 * H               6      0.04440             -0.15083             -0.00707         *
 * H               7      0.04440              0.15083             -0.00707         *
 * H               8     -0.10542             -0.11585              0.00942         *
 * H               9     -0.15427             -0.03432              0.00191         *
 * H              10     -0.23807              0.27263             -0.01729         *
 * H              11     -0.25442              0.25190             -0.01756         *
 * H              12      0.25246             -0.25275              0.00694         *
 * H              13     -0.04440             -0.15083             -0.00707         *
 * H              14      0.10542              0.11585              0.00942         *
 * H              15      0.15427              0.03432              0.00191         *
 * H              16      0.23807             -0.27263             -0.01729         *
 * H              17      0.25442             -0.25190             -0.01756         *
 * H              18     -0.25246              0.25275              0.00694         *
 * H              19      0.04440             -0.15083              0.00707         *
 * H              20     -0.10542              0.11585             -0.00942         *
 * H              21     -0.15427              0.03432             -0.00191         *
 * H              22     -0.23807             -0.27263              0.01729         *
 * H              23     -0.25442             -0.25190              0.01756         *
 * H              24      0.25246              0.25275             -0.00694         *
 * H              25     -0.04440              0.15083              0.00707         *
 * H              26      0.10542             -0.11585             -0.00942         *
 * H              27      0.15427             -0.03432             -0.00191         *
 * H              28      0.23807              0.27263              0.01729         *
 * H              29      0.25442              0.25190              0.01756         *
 * H              30     -0.25246             -0.25275             -0.00694         *
 * H              31     -0.04440             -0.15083              0.00707         *
 * H              32      0.10542              0.11585             -0.00942         *
 * H              33      0.15427              0.03432             -0.00191         *
 * H              34      0.23807             -0.27263              0.01729         *
 * H              35      0.25442             -0.25190              0.01756         *
 * H              36     -0.25246              0.25275             -0.00694         *
 * H              37      0.04440              0.15083              0.00707         *
 * H              38     -0.10542             -0.11585             -0.00942         *
 * H              39     -0.15427             -0.03432             -0.00191         *
 * H              40     -0.23807              0.27263              0.01729         *
 * H              41     -0.25442              0.25190              0.01756         *
 * H              42      0.25246             -0.25275             -0.00694         *
 * H              43     -0.04440              0.15083             -0.00707         *
 * H              44      0.10542             -0.11585              0.00942         *
 * H              45      0.15427             -0.03432              0.00191         *
 * H              46      0.23807              0.27263             -0.01729         *
 * H              47      0.25442              0.25190             -0.01756         *
 * H              48     -0.25246             -0.25275              0.00694         *
 *                                                                                  *
 ************************************************************************************

 *********** Symmetrised Stress Tensor ***********
 *                                               *
 *          Cartesian components (GPa)           *
 * --------------------------------------------- *
 *             x             y             z     *
 *                                               *
 *  x   -252.529169     -0.000000      0.000000  *
 *  y     -0.000000   -252.350376      0.000000  *
 *  z      0.000000      0.000000   -261.397435  *
 *                                               *
 *  Pressure:  255.4257                          *
 *                                               *
 *************************************************
  
 +------------+-------------+-------------+-----------------+ <-- min LBFGS
 |    Step    |   lambda    |   F.delta'  |    enthalpy     | <-- min LBFGS
 +------------+-------------+-------------+-----------------+ <-- min LBFGS
 |  previous  |    0.000000 |    0.836354 |     -564.054181 | <-- min LBFGS
 | trial step |    1.000000 |   -0.422732 |     -564.241801 | <-- min LBFGS
 +------------+-------------+-------------+-----------------+ <-- min LBFGS
  
 LBFGS: finished iteration     1 with enthalpy= -5.64241801E+002 eV
  
 +-----------+-----------------+-----------------+------------+-----+ <-- LBFGS
 | Parameter |      value      |    tolerance    |    units   | OK? | <-- LBFGS
 +-----------+-----------------+-----------------+------------+-----+ <-- LBFGS
 |  dE/ion   |   3.908755E-003 |   1.000000E-009 |         eV | No  | <-- LBFGS
 |  |F|max   |   3.623624E-001 |   1.000000E-005 |       eV/A | No  | <-- LBFGS
 |  |dR|max  |   6.250736E-008 |   1.000000E-005 |          A | Yes | <-- LBFGS
 |   Smax    |   1.764962E+001 |   1.000000E-005 |        GPa | No  | <-- LBFGS
 +-----------+-----------------+-----------------+------------+-----+ <-- LBFGS
  

================================================================================
 Starting LBFGS iteration          2 ...
================================================================================
  
 +------------+-------------+-------------+-----------------+ <-- min LBFGS
 |    Step    |   lambda    |   F.delta'  |    enthalpy     | <-- min LBFGS
 +------------+-------------+-------------+-----------------+ <-- min LBFGS
 |  previous  |    0.000000 |    0.307800 |     -564.241801 | <-- min LBFGS
 +------------+-------------+-------------+-----------------+ <-- min LBFGS
  

--------------------------------------------------------------------------------
 LBFGS: starting iteration         2 with trial guess (lambda=  1.000000)
--------------------------------------------------------------------------------

                           -------------------------------
                                      Unit Cell
                           -------------------------------
        Real Lattice(A)              Reciprocal Lattice(1/A)
     2.8700501     0.0000000     0.0000000        2.189224925  -0.000000000   0.000000000
     0.0000000     4.9962347     0.0000000       -0.000000000   1.257584091   0.000000000
     0.0000000     0.0000000     5.1574456        0.000000000   0.000000000   1.218274657

                       Lattice parameters(A)       Cell Angles
                    a =      2.870050          alpha =   90.000000
                    b =      4.996235          beta  =   90.000000
                    c =      5.157446          gamma =   90.000000

                Current cell volume =            73.954904 A**3

                           -------------------------------
                                     Cell Contents
                           -------------------------------

            xxxxxxxxxxxxxxxxxxxxxxxxxxxxxxxxxxxxxxxxxxxxxxxxxxxxxxxxxxxxxxxxx
            x  Element         Atom        Fractional coordinates of atoms  x
            x                 Number           u          v          w      x
            x---------------------------------------------------------------x
            x  H                 1         0.410404   0.116812   0.010976   x
            x  H                 2         0.579710   0.212891   0.015485   x
            x  H                 3         0.578258   0.551122   0.002919   x
            x  H                 4         0.143411   0.171984   0.249499   x
            x  H                 5         0.314083   0.343223   0.246752   x
            x  H                 6         0.171138   0.485730   0.250737   x
            x  H                 7         0.171138   0.514270   0.750737   x
            x  H                 8         0.314083   0.656777   0.746752   x
            x  H                 9         0.143411   0.828016   0.749499   x
            x  H                10         0.578258   0.448878   0.502919   x
            x  H                11         0.579710   0.787109   0.515485   x
            x  H                12         0.410404   0.883188   0.510976   x
            x  H                13         0.328862   0.985730   0.250737   x
            x  H                14         0.185917   0.843223   0.246752   x
            x  H                15         0.356589   0.671984   0.249499   x
            x  H                16        -0.078258   0.051122   0.002919   x
            x  H                17        -0.079710   0.712891   0.015485   x
            x  H                18         0.089596   0.616812   0.010976   x
            x  H                19         0.671138   0.985730   0.249263   x
            x  H                20         0.814083   0.843223   0.253248   x
            x  H                21         0.643411   0.671984   0.250501   x
            x  H                22         1.078258   0.051122   0.497081   x
            x  H                23         1.079710   0.712891   0.484515   x
            x  H                24         0.910404   0.616812   0.489024   x
            x  H                25         0.828862   0.514270   0.749263   x
            x  H                26         0.685917   0.656777   0.753248   x
            x  H                27         0.856589   0.828016   0.750501   x
            x  H                28         0.421742   0.448878  -0.002919   x
            x  H                29         0.420290   0.787109   0.984515   x
            x  H                30         0.589596   0.883188   0.989024   x
            x  H                31         0.828862   0.485730   0.249263   x
            x  H                32         0.685917   0.343223   0.253248   x
            x  H                33         0.856589   0.171984   0.250501   x
            x  H                34         0.421742   0.551122   0.497081   x
            x  H                35         0.420290   0.212891   0.484515   x
            x  H                36         0.589596   0.116812   0.489024   x
            x  H                37         0.671138   0.014270   0.749263   x
            x  H                38         0.814083   0.156777   0.753248   x
            x  H                39         0.643411   0.328016   0.750501   x
            x  H                40         0.078258  -0.051122  -0.002919   x
            x  H                41         1.079710   0.287109   0.984515   x
            x  H                42         0.910404   0.383188   0.989024   x
            x  H                43         0.328862   0.014270   0.750737   x
            x  H                44         0.185917   0.156777   0.746752   x
            x  H                45         0.356589   0.328016   0.749499   x
            x  H                46         0.921742  -0.051122   0.502919   x
            x  H                47        -0.079710   0.287109   0.515485   x
            x  H                48         0.089596   0.383188   0.510976   x
            xxxxxxxxxxxxxxxxxxxxxxxxxxxxxxxxxxxxxxxxxxxxxxxxxxxxxxxxxxxxxxxxx


------------------------------------------------------------------------ <-- SCF
SCF loop      Energy                           Energy gain       Timer   <-- SCF
                                               per atom          (sec)   <-- SCF
------------------------------------------------------------------------ <-- SCF
Initial  -6.87058826E+002                                        477.59  <-- SCF
      1  -6.88751262E+002                    3.52590832E-002     490.69  <-- SCF
      2  -6.88759346E+002                    1.68426442E-004     507.12  <-- SCF
      3  -6.88634552E+002                   -2.59988035E-003     523.46  <-- SCF
      4  -6.88631029E+002                   -7.33995724E-005     540.20  <-- SCF
      5  -6.88631017E+002                   -2.34596120E-007     556.53  <-- SCF
      6  -6.88631017E+002                   -4.37660704E-009     573.22  <-- SCF
      7  -6.88631017E+002                    1.76370109E-011     589.49  <-- SCF
      8  -6.88631017E+002                    1.39251220E-011     601.15  <-- SCF
      9  -6.88631017E+002                    4.04823478E-013     612.74  <-- SCF
     10  -6.88631017E+002                    5.23652260E-014     624.33  <-- SCF
------------------------------------------------------------------------ <-- SCF
 
Final energy =  -688.6310170870     eV
(energy not corrected for finite basis set)
 

 ******************************** Symmetrised Forces ********************************
 *                                                                                  *
 *                           Cartesian components (eV/A)                            *
 * -------------------------------------------------------------------------------- *
 *                         x                    y                    z              *
 *                                                                                  *
 * H               1     -1.02430             -1.00129             -0.00773         *
 * H               2      1.03549              1.02785              0.09939         *
 * H               3      0.96389              1.10250              0.06642         *
 * H               4      0.01243             -0.02459              0.00378         *
 * H               5      0.03137             -0.00400              0.00541         *
 * H               6      0.01575              0.02688              0.00308         *
 * H               7      0.01575             -0.02688              0.00308         *
 * H               8      0.03137              0.00400              0.00541         *
 * H               9      0.01243              0.02459              0.00378         *
 * H              10      0.96389             -1.10250              0.06642         *
 * H              11      1.03549             -1.02785              0.09939         *
 * H              12     -1.02430              1.00129             -0.00773         *
 * H              13     -0.01575              0.02688              0.00308         *
 * H              14     -0.03137             -0.00400              0.00541         *
 * H              15     -0.01243             -0.02459              0.00378         *
 * H              16     -0.96389              1.10250              0.06642         *
 * H              17     -1.03549              1.02785              0.09939         *
 * H              18      1.02430             -1.00129             -0.00773         *
 * H              19      0.01575              0.02688             -0.00308         *
 * H              20      0.03137             -0.00400             -0.00541         *
 * H              21      0.01243             -0.02459             -0.00378         *
 * H              22      0.96389              1.10250             -0.06642         *
 * H              23      1.03549              1.02785             -0.09939         *
 * H              24     -1.02430             -1.00129              0.00773         *
 * H              25     -0.01575             -0.02688             -0.00308         *
 * H              26     -0.03137              0.00400             -0.00541         *
 * H              27     -0.01243              0.02459             -0.00378         *
 * H              28     -0.96389             -1.10250             -0.06642         *
 * H              29     -1.03549             -1.02785             -0.09939         *
 * H              30      1.02430              1.00129              0.00773         *
 * H              31     -0.01575              0.02688             -0.00308         *
 * H              32     -0.03137             -0.00400             -0.00541         *
 * H              33     -0.01243             -0.02459             -0.00378         *
 * H              34     -0.96389              1.10250             -0.06642         *
 * H              35     -1.03549              1.02785             -0.09939         *
 * H              36      1.02430             -1.00129              0.00773         *
 * H              37      0.01575             -0.02688             -0.00308         *
 * H              38      0.03137              0.00400             -0.00541         *
 * H              39      0.01243              0.02459             -0.00378         *
 * H              40      0.96389             -1.10250             -0.06642         *
 * H              41      1.03549             -1.02785             -0.09939         *
 * H              42     -1.02430              1.00129              0.00773         *
 * H              43     -0.01575             -0.02688              0.00308         *
 * H              44     -0.03137              0.00400              0.00541         *
 * H              45     -0.01243              0.02459              0.00378         *
 * H              46     -0.96389             -1.10250              0.06642         *
 * H              47     -1.03549             -1.02785              0.09939         *
 * H              48      1.02430              1.00129             -0.00773         *
 *                                                                                  *
 ************************************************************************************

 *********** Symmetrised Stress Tensor ***********
 *                                               *
 *          Cartesian components (GPa)           *
 * --------------------------------------------- *
 *             x             y             z     *
 *                                               *
 *  x   -275.826901     -0.000000      0.000000  *
 *  y     -0.000000   -276.019889      0.000000  *
 *  z      0.000000      0.000000   -260.869925  *
 *                                               *
 *  Pressure:  270.9056                          *
 *                                               *
 *************************************************
  
 +------------+-------------+-------------+-----------------+ <-- min LBFGS
 |    Step    |   lambda    |   F.delta'  |    enthalpy     | <-- min LBFGS
 +------------+-------------+-------------+-----------------+ <-- min LBFGS
 |  previous  |    0.000000 |    0.307800 |     -564.241801 | <-- min LBFGS
 | trial step |    1.000000 |   -0.870035 |     -564.001661 | <-- min LBFGS
 +------------+-------------+-------------+-----------------+ <-- min LBFGS
  

--------------------------------------------------------------------------------
 LBFGS: improving iteration         2 with line minimization (lambda=  0.261327)
--------------------------------------------------------------------------------

                           -------------------------------
                                      Unit Cell
                           -------------------------------
        Real Lattice(A)              Reciprocal Lattice(1/A)
     2.8777395     0.0000000     0.0000000        2.183375270  -0.000000000   0.000000000
     0.0000000     5.0099208     0.0000000       -0.000000000   1.254148636   0.000000000
     0.0000000     0.0000000     5.1559535        0.000000000   0.000000000   1.218627229

                       Lattice parameters(A)       Cell Angles
                    a =      2.877740          alpha =   90.000000
                    b =      5.009921          beta  =   90.000000
                    c =      5.155953          gamma =   90.000000

                Current cell volume =            74.334655 A**3

                           -------------------------------
                                     Cell Contents
                           -------------------------------

            xxxxxxxxxxxxxxxxxxxxxxxxxxxxxxxxxxxxxxxxxxxxxxxxxxxxxxxxxxxxxxxxx
            x  Element         Atom        Fractional coordinates of atoms  x
            x                 Number           u          v          w      x
            x---------------------------------------------------------------x
            x  H                 1         0.406064   0.114316   0.010909   x
            x  H                 2         0.584084   0.215378   0.015654   x
            x  H                 3         0.582350   0.553814   0.003085   x
            x  H                 4         0.146063   0.171645   0.249481   x
            x  H                 5         0.315895   0.342079   0.246662   x
            x  H                 6         0.170374   0.487220   0.250805   x
            x  H                 7         0.170374   0.512780   0.750805   x
            x  H                 8         0.315895   0.657921   0.746662   x
            x  H                 9         0.146063   0.828355   0.749481   x
            x  H                10         0.582350   0.446186   0.503085   x
            x  H                11         0.584084   0.784622   0.515654   x
            x  H                12         0.406064   0.885684   0.510909   x
            x  H                13         0.329626   0.987220   0.250805   x
            x  H                14         0.184105   0.842079   0.246662   x
            x  H                15         0.353937   0.671645   0.249481   x
            x  H                16        -0.082350   0.053814   0.003085   x
            x  H                17        -0.084084   0.715378   0.015654   x
            x  H                18         0.093936   0.614316   0.010909   x
            x  H                19         0.670374   0.987220   0.249195   x
            x  H                20         0.815895   0.842079   0.253338   x
            x  H                21         0.646063   0.671645   0.250519   x
            x  H                22         1.082350   0.053814   0.496915   x
            x  H                23         1.084084   0.715378   0.484346   x
            x  H                24         0.906064   0.614316   0.489091   x
            x  H                25         0.829626   0.512780   0.749195   x
            x  H                26         0.684105   0.657921   0.753338   x
            x  H                27         0.853937   0.828355   0.750519   x
            x  H                28         0.417650   0.446186  -0.003085   x
            x  H                29         0.415916   0.784622   0.984346   x
            x  H                30         0.593936   0.885684   0.989091   x
            x  H                31         0.829626   0.487220   0.249195   x
            x  H                32         0.684105   0.342079   0.253338   x
            x  H                33         0.853937   0.171645   0.250519   x
            x  H                34         0.417650   0.553814   0.496915   x
            x  H                35         0.415916   0.215378   0.484346   x
            x  H                36         0.593936   0.114316   0.489091   x
            x  H                37         0.670374   0.012780   0.749195   x
            x  H                38         0.815895   0.157921   0.753338   x
            x  H                39         0.646063   0.328355   0.750519   x
            x  H                40         0.082350  -0.053814  -0.003085   x
            x  H                41         1.084084   0.284622   0.984346   x
            x  H                42         0.906064   0.385684   0.989091   x
            x  H                43         0.329626   0.012780   0.750805   x
            x  H                44         0.184105   0.157921   0.746662   x
            x  H                45         0.353937   0.328355   0.749481   x
            x  H                46         0.917650  -0.053814   0.503085   x
            x  H                47        -0.084084   0.284622   0.515654   x
            x  H                48         0.093936   0.385684   0.510909   x
            xxxxxxxxxxxxxxxxxxxxxxxxxxxxxxxxxxxxxxxxxxxxxxxxxxxxxxxxxxxxxxxxx


------------------------------------------------------------------------ <-- SCF
SCF loop      Energy                           Energy gain       Timer   <-- SCF
                                               per atom          (sec)   <-- SCF
------------------------------------------------------------------------ <-- SCF
Initial  -6.88690030E+002                                        641.61  <-- SCF
      1  -6.89623746E+002                    1.94524139E-002     654.42  <-- SCF
      2  -6.89628992E+002                    1.09296187E-004     670.87  <-- SCF
      3  -6.89559389E+002                   -1.45005313E-003     687.23  <-- SCF
      4  -6.89557500E+002                   -3.93547558E-005     703.87  <-- SCF
      5  -6.89557494E+002                   -1.24108053E-007     719.99  <-- SCF
      6  -6.89557494E+002                   -3.55330082E-009     736.62  <-- SCF
      7  -6.89557494E+002                    2.14334898E-011     751.08  <-- SCF
      8  -6.89557494E+002                    5.18012928E-012     762.60  <-- SCF
      9  -6.89557494E+002                    1.09966975E-012     774.12  <-- SCF
------------------------------------------------------------------------ <-- SCF
 
Final energy =  -689.5574940208     eV
(energy not corrected for finite basis set)
 

 ******************************** Symmetrised Forces ********************************
 *                                                                                  *
 *                           Cartesian components (eV/A)                            *
 * -------------------------------------------------------------------------------- *
 *                         x                    y                    z              *
 *                                                                                  *
 * H               1     -0.02995             -0.02465              0.00548         *
 * H               2      0.03135              0.03225              0.01078         *
 * H               3      0.02662              0.03107              0.00137         *
 * H               4     -0.11720              0.02013              0.00244         *
 * H               5     -0.07379              0.08940              0.00843         *
 * H               6      0.03893             -0.11040             -0.00435         *
 * H               7      0.03893              0.11040             -0.00435         *
 * H               8     -0.07379             -0.08940              0.00843         *
 * H               9     -0.11720             -0.02013              0.00244         *
 * H              10      0.02662             -0.03107              0.00137         *
 * H              11      0.03135             -0.03225              0.01078         *
 * H              12     -0.02995              0.02465              0.00548         *
 * H              13     -0.03893             -0.11040             -0.00435         *
 * H              14      0.07379              0.08940              0.00843         *
 * H              15      0.11720              0.02013              0.00244         *
 * H              16     -0.02662              0.03107              0.00137         *
 * H              17     -0.03135              0.03225              0.01078         *
 * H              18      0.02995             -0.02465              0.00548         *
 * H              19      0.03893             -0.11040              0.00435         *
 * H              20     -0.07379              0.08940             -0.00843         *
 * H              21     -0.11720              0.02013             -0.00244         *
 * H              22      0.02662              0.03107             -0.00137         *
 * H              23      0.03135              0.03225             -0.01078         *
 * H              24     -0.02995             -0.02465             -0.00548         *
 * H              25     -0.03893              0.11040              0.00435         *
 * H              26      0.07379             -0.08940             -0.00843         *
 * H              27      0.11720             -0.02013             -0.00244         *
 * H              28     -0.02662             -0.03107             -0.00137         *
 * H              29     -0.03135             -0.03225             -0.01078         *
 * H              30      0.02995              0.02465             -0.00548         *
 * H              31     -0.03893             -0.11040              0.00435         *
 * H              32      0.07379              0.08940             -0.00843         *
 * H              33      0.11720              0.02013             -0.00244         *
 * H              34     -0.02662              0.03107             -0.00137         *
 * H              35     -0.03135              0.03225             -0.01078         *
 * H              36      0.02995             -0.02465             -0.00548         *
 * H              37      0.03893              0.11040              0.00435         *
 * H              38     -0.07379             -0.08940             -0.00843         *
 * H              39     -0.11720             -0.02013             -0.00244         *
 * H              40      0.02662             -0.03107             -0.00137         *
 * H              41      0.03135             -0.03225             -0.01078         *
 * H              42     -0.02995              0.02465             -0.00548         *
 * H              43     -0.03893              0.11040             -0.00435         *
 * H              44      0.07379             -0.08940              0.00843         *
 * H              45      0.11720             -0.02013              0.00244         *
 * H              46     -0.02662             -0.03107              0.00137         *
 * H              47     -0.03135             -0.03225              0.01078         *
 * H              48      0.02995              0.02465              0.00548         *
 *                                                                                  *
 ************************************************************************************

 *********** Symmetrised Stress Tensor ***********
 *                                               *
 *          Cartesian components (GPa)           *
 * --------------------------------------------- *
 *             x             y             z     *
 *                                               *
 *  x   -258.206275      0.000000      0.000000  *
 *  y      0.000000   -258.092832      0.000000  *
 *  z      0.000000      0.000000   -261.317038  *
 *                                               *
 *  Pressure:  259.2054                          *
 *                                               *
 *************************************************
  
 +------------+-------------+-------------+-----------------+ <-- min LBFGS
 |    Step    |   lambda    |   F.delta'  |    enthalpy     | <-- min LBFGS
 +------------+-------------+-------------+-----------------+ <-- min LBFGS
 |  previous  |    0.000000 |    0.307800 |     -564.241801 | <-- min LBFGS
 | trial step |    1.000000 |   -0.870035 |     -564.001661 | <-- min LBFGS
 |  line step |    0.261327 |    0.044580 |     -564.288178 | <-- min LBFGS
 +------------+-------------+-------------+-----------------+ <-- min LBFGS
  
 LBFGS: finished iteration     2 with enthalpy= -5.64288178E+002 eV
  
 +-----------+-----------------+-----------------+------------+-----+ <-- LBFGS
 | Parameter |      value      |    tolerance    |    units   | OK? | <-- LBFGS
 +-----------+-----------------+-----------------+------------+-----+ <-- LBFGS
 |  dE/ion   |   9.662025E-004 |   1.000000E-009 |         eV | No  | <-- LBFGS
 |  |F|max   |   1.189364E-001 |   1.000000E-005 |       eV/A | No  | <-- LBFGS
 |  |dR|max  |   6.341969E-003 |   1.000000E-005 |          A | No  | <-- LBFGS
 |   Smax    |   1.190717E+001 |   1.000000E-005 |        GPa | No  | <-- LBFGS
 +-----------+-----------------+-----------------+------------+-----+ <-- LBFGS
  

================================================================================
 Starting LBFGS iteration          3 ...
================================================================================
  
 +------------+-------------+-------------+-----------------+ <-- min LBFGS
 |    Step    |   lambda    |   F.delta'  |    enthalpy     | <-- min LBFGS
 +------------+-------------+-------------+-----------------+ <-- min LBFGS
 |  previous  |    0.000000 |    0.249533 |     -564.288178 | <-- min LBFGS
 +------------+-------------+-------------+-----------------+ <-- min LBFGS
  

--------------------------------------------------------------------------------
 LBFGS: starting iteration         3 with trial guess (lambda=  1.000000)
--------------------------------------------------------------------------------

                           -------------------------------
                                      Unit Cell
                           -------------------------------
        Real Lattice(A)              Reciprocal Lattice(1/A)
     2.8516637     0.0000000     0.0000000        2.203340250  -0.000000000   0.000000000
     0.0000000     4.9640750     0.0000000       -0.000000000   1.265731348   0.000000000
     0.0000000     0.0000000     5.1218481        0.000000000   0.000000000   1.226741826

                       Lattice parameters(A)       Cell Angles
                    a =      2.851664          alpha =   90.000000
                    b =      4.964075          beta  =   90.000000
                    c =      5.121848          gamma =   90.000000

                Current cell volume =            72.504227 A**3

                           -------------------------------
                                     Cell Contents
                           -------------------------------

            xxxxxxxxxxxxxxxxxxxxxxxxxxxxxxxxxxxxxxxxxxxxxxxxxxxxxxxxxxxxxxxxx
            x  Element         Atom        Fractional coordinates of atoms  x
            x                 Number           u          v          w      x
            x---------------------------------------------------------------x
            x  H                 1         0.404777   0.113701   0.011034   x
            x  H                 2         0.585428   0.216171   0.015903   x
            x  H                 3         0.583497   0.554583   0.003119   x
            x  H                 4         0.141303   0.172113   0.249536   x
            x  H                 5         0.312900   0.344165   0.246853   x
            x  H                 6         0.171957   0.484645   0.250706   x
            x  H                 7         0.171957   0.515355   0.750706   x
            x  H                 8         0.312900   0.655835   0.746853   x
            x  H                 9         0.141303   0.827887   0.749536   x
            x  H                10         0.583497   0.445417   0.503119   x
            x  H                11         0.585428   0.783829   0.515903   x
            x  H                12         0.404777   0.886299   0.511034   x
            x  H                13         0.328043   0.984645   0.250706   x
            x  H                14         0.187100   0.844165   0.246853   x
            x  H                15         0.358697   0.672113   0.249536   x
            x  H                16        -0.083497   0.054583   0.003119   x
            x  H                17        -0.085428   0.716171   0.015903   x
            x  H                18         0.095223   0.613701   0.011034   x
            x  H                19         0.671957   0.984645   0.249294   x
            x  H                20         0.812900   0.844165   0.253147   x
            x  H                21         0.641303   0.672113   0.250464   x
            x  H                22         1.083497   0.054583   0.496881   x
            x  H                23         1.085428   0.716171   0.484097   x
            x  H                24         0.904777   0.613701   0.488966   x
            x  H                25         0.828043   0.515355   0.749294   x
            x  H                26         0.687100   0.655835   0.753147   x
            x  H                27         0.858697   0.827887   0.750464   x
            x  H                28         0.416503   0.445417  -0.003119   x
            x  H                29         0.414572   0.783829   0.984097   x
            x  H                30         0.595223   0.886299   0.988966   x
            x  H                31         0.828043   0.484645   0.249294   x
            x  H                32         0.687100   0.344165   0.253147   x
            x  H                33         0.858697   0.172113   0.250464   x
            x  H                34         0.416503   0.554583   0.496881   x
            x  H                35         0.414572   0.216171   0.484097   x
            x  H                36         0.595223   0.113701   0.488966   x
            x  H                37         0.671957   0.015355   0.749294   x
            x  H                38         0.812900   0.155835   0.753147   x
            x  H                39         0.641303   0.327887   0.750464   x
            x  H                40         0.083497  -0.054583  -0.003119   x
            x  H                41         1.085428   0.283829   0.984097   x
            x  H                42         0.904777   0.386299   0.988966   x
            x  H                43         0.328043   0.015355   0.750706   x
            x  H                44         0.187100   0.155835   0.746853   x
            x  H                45         0.358697   0.327887   0.749536   x
            x  H                46         0.916503  -0.054583   0.503119   x
            x  H                47        -0.085428   0.283829   0.515903   x
            x  H                48         0.095223   0.386299   0.511034   x
            xxxxxxxxxxxxxxxxxxxxxxxxxxxxxxxxxxxxxxxxxxxxxxxxxxxxxxxxxxxxxxxxx


------------------------------------------------------------------------ <-- SCF
SCF loop      Energy                           Energy gain       Timer   <-- SCF
                                               per atom          (sec)   <-- SCF
------------------------------------------------------------------------ <-- SCF
Initial  -6.85893731E+002                                        791.40  <-- SCF
      1  -6.86567120E+002                    1.40289454E-002     804.30  <-- SCF
      2  -6.86572012E+002                    1.01910683E-004     820.59  <-- SCF
      3  -6.86469539E+002                   -2.13486222E-003     836.85  <-- SCF
      4  -6.86467860E+002                   -3.49832522E-005     853.60  <-- SCF
      5  -6.86467857E+002                   -4.58261788E-008     869.81  <-- SCF
      6  -6.86467857E+002                   -2.68052355E-009     886.23  <-- SCF
      7  -6.86467857E+002                   -6.47113350E-011     902.23  <-- SCF
      8  -6.86467857E+002                    1.47025442E-012     913.73  <-- SCF
      9  -6.86467857E+002                   -1.08758546E-013     925.31  <-- SCF
------------------------------------------------------------------------ <-- SCF
 
Final energy =  -686.4678571911     eV
(energy not corrected for finite basis set)
 

 ******************************** Symmetrised Forces ********************************
 *                                                                                  *
 *                           Cartesian components (eV/A)                            *
 * -------------------------------------------------------------------------------- *
 *                         x                    y                    z              *
 *                                                                                  *
 * H               1      0.07529              0.07712              0.10203         *
 * H               2     -0.09426             -0.08739              0.09712         *
 * H               3     -0.10432             -0.12272             -0.00802         *
 * H               4      0.23548             -0.06609             -0.00505         *
[...]
              H 4  -- H 34                   0.03        2.42463
              H 16 -- H 21                   0.03        2.42463
              H 15 -- H 22                   0.03        2.42463
              H 10 -- H 27                   0.03        2.42463
              H 40 -- H 45                   0.03        2.42463
              H 39 -- H 46                   0.03        2.42463
              H 11 -- H 48                   0.02        2.43329
              H 29 -- H 42                   0.02        2.43329
              H 1  -- H 17                   0.02        2.43329
              H 23 -- H 36                   0.02        2.43329
              H 2  -- H 18                   0.02        2.43329
              H 12 -- H 47                   0.02        2.43329
              H 24 -- H 35                   0.02        2.43329
              H 30 -- H 41                   0.02        2.43329
              H 34 -- H 44                   0.00        2.45515
              H 3  -- H 38                   0.00        2.45515
              H 14 -- H 28                   0.00        2.45515
              H 10 -- H 20                   0.00        2.45515
              H 16 -- H 26                   0.00        2.45515
              H 8  -- H 22                   0.00        2.45515
              H 5  -- H 40                   0.00        2.45515
              H 32 -- H 46                   0.00        2.45515
              H 12 -- H 29                   0.04        2.46071
              H 11 -- H 30                   0.04        2.46071
              H 42 -- H 47                   0.04        2.46071
              H 41 -- H 48                   0.04        2.46071
              H 18 -- H 23                   0.04        2.46071
              H 17 -- H 24                   0.04        2.46071
              H 1  -- H 35                   0.04        2.46071
              H 2  -- H 36                   0.04        2.46071
              H 8  -- H 47                  -0.01        2.46516
              H 11 -- H 44                  -0.01        2.46516
              H 29 -- H 38                  -0.01        2.46516
              H 26 -- H 41                  -0.01        2.46516
              H 5  -- H 17                  -0.01        2.46516
              H 23 -- H 32                  -0.01        2.46516
              H 2  -- H 14                  -0.01        2.46516
              H 20 -- H 35                  -0.01        2.46516
              H 18 -- H 43                   0.02        2.49042
              H 6  -- H 12                   0.02        2.49042
              H 24 -- H 37                   0.02        2.49042
              H 30 -- H 31                   0.02        2.49042
              H 1  -- H 7                    0.02        2.49042
              H 25 -- H 36                   0.02        2.49042
              H 13 -- H 48                   0.02        2.49042
              H 19 -- H 42                   0.02        2.49042
              H 23 -- H 45                   0.04        2.49286
              H 17 -- H 39                   0.04        2.49286
              H 11 -- H 33                   0.04        2.49286
              H 4  -- H 29                   0.04        2.49286
              H 9  -- H 35                   0.04        2.49286
              H 2  -- H 27                   0.04        2.49286
              H 15 -- H 41                   0.04        2.49286
              H 21 -- H 47                   0.04        2.49286
              H 25 -- H 46                   0.03        2.50595
              H 7  -- H 40                   0.03        2.50595
              H 16 -- H 31                   0.03        2.50595
              H 6  -- H 22                   0.03        2.50595
              H 28 -- H 43                   0.03        2.50595
              H 10 -- H 37                   0.03        2.50595
              H 13 -- H 34                   0.03        2.50595
              H 3  -- H 19                   0.03        2.50595
              H 12 -- H 30                   0.04        2.51148
              H 42 -- H 48                   0.04        2.51148
              H 18 -- H 24                   0.04        2.51148
              H 1  -- H 36                   0.04        2.51148
              H 5  -- H 14                  -0.08        2.52088
              H 20 -- H 32                  -0.08        2.52088
              H 26 -- H 38                  -0.08        2.52088
              H 8  -- H 44                  -0.08        2.52088
              H 27 -- H 42                   0.05        2.52479
              H 9  -- H 48                   0.05        2.52479
              H 21 -- H 36                   0.05        2.52479
              H 1  -- H 15                   0.05        2.52479
              H 30 -- H 39                   0.05        2.52479
              H 12 -- H 45                   0.05        2.52479
              H 4  -- H 18                   0.05        2.52479
              H 24 -- H 33                   0.05        2.52479
              H 13 -- H 24                   0.01        2.53346
              H 7  -- H 30                   0.01        2.53346
              H 18 -- H 19                   0.01        2.53346
              H 6  -- H 36                   0.01        2.53346
              H 12 -- H 25                   0.01        2.53346
              H 42 -- H 43                   0.01        2.53346
              H 1  -- H 31                   0.01        2.53346
              H 37 -- H 48                   0.01        2.53346
              H 7  -- H 43                  -0.05        2.53396
              H 6  -- H 13                  -0.05        2.53396
              H 25 -- H 37                  -0.05        2.53396
              H 19 -- H 31                  -0.05        2.53396
              H 33 -- H 38                   0.03        2.54928
              H 21 -- H 26                   0.03        2.54928
              H 8  -- H 15                   0.03        2.54928
              H 4  -- H 44                   0.03        2.54928
              H 9  -- H 14                   0.03        2.54928
              H 5  -- H 45                   0.03        2.54928
              H 32 -- H 39                   0.03        2.54928
              H 20 -- H 27                   0.03        2.54928
              H 13 -- H 43                   0.03        2.56705
              H 6  -- H 7                    0.03        2.56705
              H 25 -- H 31                   0.03        2.56705
              H 19 -- H 37                   0.03        2.56705
              H 4  -- H 15                   0.00        2.56741
              H 21 -- H 33                   0.00        2.56741
              H 27 -- H 39                   0.00        2.56741
              H 9  -- H 45                   0.00        2.56741
              H 16 -- H 22                   0.05        2.56914
              H 3  -- H 34                   0.05        2.56914
              H 40 -- H 46                   0.05        2.56914
              H 10 -- H 28                   0.05        2.56914
              H 29 -- H 45                   0.06        2.57674
              H 11 -- H 39                   0.06        2.57674
              H 17 -- H 33                   0.06        2.57674
              H 4  -- H 23                   0.06        2.57674
              H 27 -- H 47                   0.06        2.57674
              H 9  -- H 41                   0.06        2.57674
              H 15 -- H 35                   0.06        2.57674
              H 2  -- H 21                   0.06        2.57674
              H 25 -- H 40                   0.05        2.59886
              H 22 -- H 31                   0.05        2.59886
              H 7  -- H 46                   0.05        2.59886
              H 28 -- H 37                   0.05        2.59886
              H 6  -- H 16                   0.05        2.59886
              H 10 -- H 43                   0.05        2.59886
              H 19 -- H 34                   0.05        2.59886
              H 3  -- H 13                   0.05        2.59886
              H 17 -- H 38                   0.02        2.60489
              H 23 -- H 44                   0.02        2.60489
              H 8  -- H 35                   0.02        2.60489
              H 2  -- H 26                   0.02        2.60489
              H 11 -- H 32                   0.02        2.60489
              H 5  -- H 29                   0.02        2.60489
              H 14 -- H 41                   0.02        2.60489
              H 20 -- H 47                   0.02        2.60489
              H 3  -- H 4                    0.04        2.60962
              H 33 -- H 34                   0.04        2.60962
              H 27 -- H 28                   0.04        2.60962
              H 15 -- H 16                   0.04        2.60962
              H 9  -- H 10                   0.04        2.60962
              H 21 -- H 22                   0.04        2.60962
              H 45 -- H 46                   0.04        2.60962
              H 39 -- H 40                   0.04        2.60962
              H 9  -- H 42                   0.06        2.61692
              H 27 -- H 48                   0.06        2.61692
              H 1  -- H 21                   0.06        2.61692
              H 15 -- H 36                   0.06        2.61692
              H 30 -- H 45                   0.06        2.61692
              H 18 -- H 33                   0.06        2.61692
              H 12 -- H 39                   0.06        2.61692
              H 4  -- H 24                   0.06        2.61692
              H 28 -- H 34                   0.05        2.62097
              H 3  -- H 10                   0.05        2.62097
              H 16 -- H 46                   0.05        2.62097
              H 22 -- H 40                   0.05        2.62097
              H 10 -- H 14                   0.03        2.64185
              H 20 -- H 28                   0.03        2.64185
              H 3  -- H 44                   0.03        2.64185
              H 34 -- H 38                   0.03        2.64185
              H 32 -- H 40                   0.03        2.64185
              H 22 -- H 26                   0.03        2.64185
              H 5  -- H 46                   0.03        2.64185
              H 8  -- H 16                   0.03        2.64185
              H 12 -- H 48                   0.04        2.64412
              H 30 -- H 42                   0.04        2.64412
              H 1  -- H 18                   0.04        2.64412
              H 24 -- H 36                   0.04        2.64412
              H 31 -- H 46                   0.04        2.64743
              H 16 -- H 25                   0.04        2.64743
              H 7  -- H 22                   0.04        2.64743
              H 6  -- H 40                   0.04        2.64743
              H 10 -- H 19                   0.04        2.64743
              H 13 -- H 28                   0.04        2.64743
              H 34 -- H 43                   0.04        2.64743
              H 3  -- H 37                   0.04        2.64743
              H 29 -- H 39                   0.07        2.64887
              H 11 -- H 45                   0.07        2.64887
              H 23 -- H 33                   0.07        2.64887
              H 4  -- H 17                   0.07        2.64887
              H 27 -- H 41                   0.07        2.64887
              H 9  -- H 47                   0.07        2.64887
              H 21 -- H 35                   0.07        2.64887
              H 2  -- H 15                   0.07        2.64887
              H 20 -- H 42                   0.03        2.66889
              H 14 -- H 48                   0.03        2.66889
              H 26 -- H 36                   0.03        2.66889
              H 1  -- H 8                    0.03        2.66889
              H 30 -- H 32                   0.03        2.66889
              H 5  -- H 12                   0.03        2.66889
              H 24 -- H 38                   0.03        2.66889
              H 18 -- H 44                   0.03        2.66889
              H 29 -- H 41                   0.06        2.66929
              H 23 -- H 35                   0.06        2.66929
              H 11 -- H 47                   0.06        2.66929
              H 2  -- H 17                   0.06        2.66929
              H 28 -- H 48                   0.02        2.67038
              H 12 -- H 40                   0.02        2.67038
              H 1  -- H 22                   0.02        2.67038
              H 18 -- H 34                   0.02        2.67038
              H 10 -- H 42                   0.02        2.67038
              H 16 -- H 36                   0.02        2.67038
              H 30 -- H 46                   0.02        2.67038
              H 3  -- H 24                   0.02        2.67038
              H 22 -- H 34                   0.06        2.67484
              H 3  -- H 16                   0.06        2.67484
              H 28 -- H 40                   0.06        2.67484
              H 10 -- H 46                   0.06        2.67484
              H 17 -- H 45                   0.05        2.68655
              H 23 -- H 39                   0.05        2.68655
              H 29 -- H 33                   0.05        2.68655
              H 4  -- H 11                   0.05        2.68655
              H 2  -- H 9                    0.05        2.68655
              H 27 -- H 35                   0.05        2.68655
              H 15 -- H 47                   0.05        2.68655
              H 21 -- H 41                   0.05        2.68655
              H 24 -- H 43                   0.05        2.69494
              H 6  -- H 30                   0.05        2.69494
              H 18 -- H 37                   0.05        2.69494
              H 7  -- H 36                   0.05        2.69494
              H 12 -- H 31                   0.05        2.69494
              H 13 -- H 42                   0.05        2.69494
              H 1  -- H 25                   0.05        2.69494
              H 19 -- H 48                   0.05        2.69494
              H 13 -- H 44                   0.02        2.70775
              H 6  -- H 8                    0.02        2.70775
              H 19 -- H 38                   0.02        2.70775
              H 26 -- H 31                   0.02        2.70775
              H 5  -- H 7                    0.02        2.70775
              H 25 -- H 32                   0.02        2.70775
              H 14 -- H 43                   0.02        2.70775
              H 20 -- H 37                   0.02        2.70775
              H 33 -- H 44                   0.02        2.70816
              H 15 -- H 26                   0.02        2.70816
              H 14 -- H 27                   0.02        2.70816
              H 9  -- H 20                   0.02        2.70816
              H 8  -- H 21                   0.02        2.70816
              H 5  -- H 39                   0.02        2.70816
              H 4  -- H 38                   0.02        2.70816
              H 32 -- H 45                   0.02        2.70816
              H 29 -- H 32                   0.05        2.72340
              H 23 -- H 38                   0.05        2.72340
              H 17 -- H 44                   0.05        2.72340
              H 5  -- H 11                   0.05        2.72340
              H 26 -- H 35                   0.05        2.72340
              H 2  -- H 8                    0.05        2.72340
              H 20 -- H 41                   0.05        2.72340
              H 14 -- H 47                   0.05        2.72340
              H 6  -- H 45                   0.03        2.72657
              H 9  -- H 13                   0.03        2.72657
              H 4  -- H 43                   0.03        2.72657
              H 33 -- H 37                   0.03        2.72657
              H 31 -- H 39                   0.03        2.72657
              H 7  -- H 15                   0.03        2.72657
              H 19 -- H 27                   0.03        2.72657
              H 21 -- H 25                   0.03        2.72657
              H 31 -- H 40                   0.06        2.72916
              H 22 -- H 25                   0.06        2.72916
              H 6  -- H 46                   0.06        2.72916
              H 19 -- H 28                   0.06        2.72916
              H 10 -- H 13                   0.06        2.72916
              H 7  -- H 16                   0.06        2.72916
              H 34 -- H 37                   0.06        2.72916
              H 3  -- H 43                   0.06        2.72916
              H 22 -- H 41                  -0.00        2.73733
              H 16 -- H 47                  -0.00        2.73733
              H 17 -- H 46                  -0.00        2.73733
              H 23 -- H 40                  -0.00        2.73733
              H 2  -- H 10                  -0.00        2.73733
              H 29 -- H 34                  -0.00        2.73733
              H 28 -- H 35                  -0.00        2.73733
              H 3  -- H 11                  -0.00        2.73733
              H 6  -- H 25                   0.03        2.74240
              H 13 -- H 37                   0.03        2.74240
              H 7  -- H 31                   0.03        2.74240
              H 19 -- H 43                   0.03        2.74240
              H 21 -- H 27                   0.03        2.74823
              H 9  -- H 15                   0.03        2.74823
              H 33 -- H 39                   0.03        2.74823
              H 4  -- H 45                   0.03        2.74823
              H 20 -- H 26                   0.02        2.75268
              H 8  -- H 14                   0.02        2.75268
              H 32 -- H 38                   0.02        2.75268
              H 5  -- H 44                   0.02        2.75268
              H 14 -- H 42                   0.05        2.75589
              H 20 -- H 48                   0.05        2.75589
              H 8  -- H 36                   0.05        2.75589
              H 1  -- H 26                   0.05        2.75589
              H 24 -- H 44                   0.05        2.75589
              H 5  -- H 30                   0.05        2.75589
              H 18 -- H 38                   0.05        2.75589
              H 12 -- H 32                   0.05        2.75589
              H 11 -- H 17                   0.02        2.75719
              H 2  -- H 47                   0.02        2.75719
              H 35 -- H 41                   0.02        2.75719
              H 23 -- H 29                   0.02        2.75719
              H 24 -- H 42                  -0.00        2.80430
              H 18 -- H 48                  -0.00        2.80430
              H 30 -- H 36                  -0.00        2.80430
              H 1  -- H 12                  -0.00        2.80430
======================================================================


Writing analysis data to Pbcn.castep_bin

Writing model to Pbcn.check
 
 A BibTeX formatted list of references used in this run has been written to 
 Pbcn.bib
 
Initialisation time =      5.29 s
Calculation time    =   5243.81 s
Finalisation time   =     13.09 s
Total time          =   5262.20 s
Peak Memory Use     = 764140 kB
  
Overall parallel efficiency rating: Excellent (97%)                             
  
Data was distributed by:-
k-point (32-way); efficiency rating: Excellent (97%)                            
