 +-------------------------------------------------+
 |                                                 |
 |      CCC   AA    SSS  TTTTT  EEEEE  PPPP        |
 |     C     A  A  S       T    E      P   P       |
 |     C     AAAA   SS     T    EEE    PPPP        |
 |     C     A  A     S    T    E      P           |
 |      CCC  A  A  SSS     T    EEEEE  P           |
 |                                                 |
 +-------------------------------------------------+
 |                                                 |
 | Welcome to Academic Release CASTEP version 18.1 |          
 | Ab Initio Total Energy Program                  |
 |                                                 |
 | Authors:                                        |
 | M. Segall, M. Probert, C. Pickard, P. Hasnip,   |
 | S. Clark, K. Refson, J. R. Yates, M. Payne      |
 |                                                 |
 | Contributors:                                   |
 | P. Lindan, P. Haynes, J. White, V. Milman,      |
 | N. Govind, M. Gibson, P. Tulip, V. Cocula,      |
 | B. Montanari, D. Quigley, M. Glover,            |
 | L. Bernasconi, A. Perlov, M. Plummer,           |
 | E. McNellis, J. Meyer, J. Gale, D. Jochym       |
 | J. Aarons, B. Walker, R. Gillen, D. Jones       |
 | T. Green, I. J. Bush, C. J. Armstrong,          |
 | E. J. Higgins, E. L. Brown, M. S. McFly,        |
 | J. Wilkins, B-C. Shih, P. J. P. Byrne           |
 |                                                 |
 | Copyright (c) 2000 - 2017                       |
 |                                                 |
 |     Distributed under the terms of an           |
 |     Agreement between the United Kingdom        |
 |     Car-Parrinello (UKCP) Consortium,           |
 |     Daresbury Laboratory and Accelrys, Inc.     |
 |                                                 |
 | Please cite                                     |
 |                                                 |
 |     "First principles methods using CASTEP"     |
 |                                                 |
 |         Zeitschrift fuer Kristallographie       |
 |           220(5-6) pp. 567-570 (2005)           |
 |                                                 |
 | S. J. Clark, M. D. Segall, C. J. Pickard,       |
 | P. J. Hasnip, M. J. Probert, K. Refson,         |
 | M. C. Payne                                     |
 |                                                 |
 |       in all publications arising from          |
 |              your use of CASTEP                 |
 |                                                 |
 +-------------------------------------------------+


 Compiled for linux_x86_64_gfortran4.8 on Thu, 19 Jul 2018 15:42:32 +0100
 from code version 70483bd0ad64+  Sun, 10 Dec 2017 12:18:29 +0000
 Compiler: GNU Fortran 4.8.5; Optimisation: fast
 MATHLIBS: Intel MKL(2018.0.0) (LAPACK version 3.7.0)
 FFT Lib : mkl
 Fundamental constants values: CODATA 2014

 Run started: Thu, 27 Aug 2020 19:57:07 +0100

 Atomic calculation performed for H: 1s1

 Converged in 41 iterations to an ae energy of -12.488 eV

   ============================================================                
   | Pseudopotential Report - Date of generation 27-08-2020   |                
   ------------------------------------------------------------                
   | Element: H Ionic charge:  1.00 Level of theory: PBE      |                
   | Atomic Solver: Koelling-Harmon                           |                
   |                                                          |                
   |               Reference Electronic Structure             |                
   |         Orbital         Occupation         Energy        |                
   |            1s              1.000           -0.239        |                
   |                                                          |                
   |                 Pseudopotential Definition               |                
   |        Beta     l      e      Rc     scheme   norm       |                
   |         loc     0   -0.239   0.702     qc      1         |                
   |                                                          |                
   | No charge augmentation                                   |                
   | No partial core correction                               |                
   ------------------------------------------------------------                
   | "0|0.7|2|6|8|10L(qc=10)"                                 |                
   ------------------------------------------------------------                
   |      Author: Chris J. Pickard, Cambridge University      |                
   ============================================================                

 Pseudo atomic calculation performed for H 1s1

 Converged in 24 iterations to a total energy of -12.4855 eV

 Calculation parallelised over 32 processes.
 Data is distributed by k-point(32-way)

 ************************************ Title ************************************
 

 ***************************** General Parameters ******************************
  
 output verbosity                               : normal  (1)
 write checkpoint data to                       : Pbcn.check
 type of calculation                            : geometry optimization
 stress calculation                             : on
 density difference calculation                 : off
 electron localisation func (ELF) calculation   : off
 Hirshfeld analysis                             : off
 unlimited duration calculation
 timing information                             : on
 memory usage estimate                          : on
 write extra output files                       : on
 write final potential to formatted file        : off
 write final density to formatted file          : off
 write structure in CELL formatted file         : on
 write BibTeX reference list                    : on
 write OTFG pseudopotential files               : on
 write electrostatic potential file             : on
 write bands file                               : on
 checkpoint writing                             : both castep_bin and check files
  
 output         length unit                     : A
 output           mass unit                     : amu
 output           time unit                     : ps
 output         charge unit                     : e
 output           spin unit                     : hbar/2
 output         energy unit                     : eV
 output          force unit                     : eV/A
 output       velocity unit                     : A/ps
 output       pressure unit                     : GPa
 output     inv_length unit                     : 1/A
 output      frequency unit                     : cm-1
 output force constant unit                     : eV/A**2
 output         volume unit                     : A**3
 output   IR intensity unit                     : (D/A)**2/amu
 output         dipole unit                     : D
 output         efield unit                     : eV/A/e
 output        entropy unit                     : J/mol/K
  
 wavefunctions paging                           : none
 random number generator seed                   : randomised (195707895)
 data distribution                              : optimal for this architecture
 optimization strategy                          : maximize speed(+++)

 *********************** Exchange-Correlation Parameters ***********************
  
 using functional                               : Perdew Burke Ernzerhof
 relativistic treatment                         : Koelling-Harmon
 DFT+D: Semi-empirical dispersion correction    : off

 ************************* Pseudopotential Parameters **************************
  
 pseudopotential representation                 : reciprocal space
 <beta|phi> representation                      : reciprocal space
 spin-orbit coupling                            : off

 **************************** Basis Set Parameters *****************************
  
 plane wave basis set cut-off                   :  1600.0000   eV
 size of standard grid                          :     2.0000
 size of   fine   gmax                          :    40.9853   1/A
 finite basis set correction                    : automatic
 number of sample energies                      :          3
           sample  spacing                      :     5.0000   eV

 **************************** Electronic Parameters ****************************
  
 number of  electrons                           :  48.00    
 net charge of system                           :  0.000    
 treating system as non-spin-polarized
 number of bands                                :         24

 ********************* Electronic Minimization Parameters **********************
  
 Method: Treating system as non-metallic,
         and number of  SD  steps               :          1
         and number of  CG  steps               :          4
  
 total energy / atom convergence tol.           : 0.1000E-10   eV
 eigen-energy convergence tolerance             : 0.2000E-10   eV
 max force / atom convergence tol.              : ignored
 convergence tolerance window                   :          3   cycles
 max. number of SCF cycles                      :        100
 periodic dipole correction                     : NONE

 ************************** Density Mixing Parameters **************************
  
 density-mixing scheme                          : Broyden
 max. length of mixing history                  :         20
 charge density mixing amplitude                : 0.8000    
 cut-off energy for mixing                      :  1600.       eV

 *********************** Population Analysis Parameters ************************
  
 Population analysis with cutoff                :  3.000       A
 Population analysis output                     : summary and pdos components

 ********************** Geometry Optimization Parameters ***********************
  
 optimization method                            : LBFGS
 max. no. of LBFGS updates                      : unbounded
 variable cell method                           : fixed basis quality
 max. number of steps                           :        100
 estimated bulk modulus                         :  500.0       GPa
 estimated <frequency>                          :  1668.       cm-1
 geom line minimiser                            : on
 with line minimiser tolerance                  :     0.4000
 total energy convergence tolerance             : 0.1000E-08   eV/atom
        max ionic |force| tolerance             : 0.1000E-04   eV/A
 max ionic |displacement| tolerance             : 0.1000E-04   A
   max |stress component| tolerance             : 0.1000E-04   GPa
 convergence tolerance window                   :          2   steps
 backup results every                           :      14400   seconds
 write geom trajectory file                     : on

 *******************************************************************************
  

                           -------------------------------
                                      Unit Cell
                           -------------------------------
        Real Lattice(A)                      Reciprocal Lattice(1/A)
     2.9135275    -0.0000000     0.0000000        2.156555996   0.000000000   0.000000000
    -0.0000000     5.0688048     0.0000000        0.000000000   1.239579263   0.000000000
     0.0000000     0.0000000     5.2058887        0.000000000   0.000000000   1.206938085

                       Lattice parameters(A)       Cell Angles
                    a =      2.913528          alpha =   90.000000
                    b =      5.068805          beta  =   90.000000
                    c =      5.205889          gamma =   90.000000

                       Current cell volume =            76.881097       A**3
                                   density =             0.629298   AMU/A**3
                                           =             1.044974     g/cm^3

                           -------------------------------
                                     Cell Contents
                           -------------------------------
                         Total number of ions in cell =   48
                      Total number of species in cell =    1
                        Max number of any one species =   48

            xxxxxxxxxxxxxxxxxxxxxxxxxxxxxxxxxxxxxxxxxxxxxxxxxxxxxxxxxxxx
            x  Element    Atom        Fractional coordinates of atoms  x
            x            Number           u          v          w      x
            x----------------------------------------------------------x
            x  H            1         0.402117   0.114819   0.010875   x 
            x  H            2         0.581803   0.212472   0.023166   x 
            x  H            3         0.578076   0.554926   0.003857   x 
            x  H            4         0.139369   0.171789   0.248931   x 
            x  H            5         0.312242   0.345740   0.244670   x 
            x  H            6         0.173303   0.484263   0.250476   x 
            x  H            7         0.173303   0.515737   0.750476   x 
            x  H            8         0.312242   0.654260   0.744670   x 
            x  H            9         0.139369   0.828211   0.748931   x 
            x  H           10         0.578076   0.445074   0.503857   x 
            x  H           11         0.581803   0.787528   0.523166   x 
            x  H           12         0.402117   0.885181   0.510875   x 
            x  H           13         0.326697   0.984263   0.250476   x 
            x  H           14         0.187758   0.845740   0.244670   x 
            x  H           15         0.360631   0.671789   0.248931   x 
            x  H           16        -0.078076   0.054926   0.003857   x 
            x  H           17        -0.081803   0.712472   0.023166   x 
            x  H           18         0.097883   0.614819   0.010875   x 
            x  H           19         0.673303   0.984263   0.249524   x 
            x  H           20         0.812242   0.845740   0.255330   x 
            x  H           21         0.639369   0.671789   0.251069   x 
            x  H           22         1.078076   0.054926   0.496143   x 
            x  H           23         1.081803   0.712472   0.476834   x 
            x  H           24         0.902117   0.614819   0.489125   x 
            x  H           25         0.826697   0.515737   0.749524   x 
            x  H           26         0.687758   0.654260   0.755330   x 
            x  H           27         0.860631   0.828211   0.751069   x 
            x  H           28         0.421924   0.445074  -0.003857   x 
            x  H           29         0.418197   0.787528   0.976834   x 
            x  H           30         0.597883   0.885181   0.989125   x 
            x  H           31         0.826697   0.484263   0.249524   x 
            x  H           32         0.687758   0.345740   0.255330   x 
            x  H           33         0.860631   0.171789   0.251069   x 
            x  H           34         0.421924   0.554926   0.496143   x 
            x  H           35         0.418197   0.212472   0.476834   x 
            x  H           36         0.597883   0.114819   0.489125   x 
            x  H           37         0.673303   0.015737   0.749524   x 
            x  H           38         0.812242   0.154260   0.755330   x 
            x  H           39         0.639369   0.328211   0.751069   x 
            x  H           40         0.078076  -0.054926  -0.003857   x 
            x  H           41         1.081803   0.287528   0.976834   x 
            x  H           42         0.902117   0.385181   0.989125   x 
            x  H           43         0.326697   0.015737   0.750476   x 
            x  H           44         0.187758   0.154260   0.744670   x 
            x  H           45         0.360631   0.328211   0.748931   x 
            x  H           46         0.921924  -0.054926   0.503857   x 
            x  H           47        -0.081803   0.287528   0.523166   x 
            x  H           48         0.097883   0.385181   0.510875   x 
            xxxxxxxxxxxxxxxxxxxxxxxxxxxxxxxxxxxxxxxxxxxxxxxxxxxxxxxxxxxx


                         No user defined ionic velocities

                           -------------------------------
                                   Details of Species
                           -------------------------------

                               Mass of species in AMU
                                    H    1.0078250

                          Electric Quadrupole Moment (Barn)
                                    H    0.0028600 Isotope  2

                          Files used for pseudopotentials:
                                    H 0|0.7|2|6|8|10L(qc=10)

                           -------------------------------
                              k-Points For BZ Sampling
                           -------------------------------
                       MP grid size for SCF calculation is 12 12 12
                            with an offset of   0.000  0.000  0.000
                       Number of kpoints used =           216

                           -------------------------------
                               Symmetry and Constraints
                           -------------------------------

                      Maximum deviation from symmetry = 0.106923E-13     ANG

                      Number of symmetry operations   =           8
                      Number of ionic constraints     =           3
                      Point group of crystal =     8: D2h, mmm, 2/m 2/m 2/m
                      Space group of crystal =    60: Pbcn, -P 2n 2ab

             Set iprint > 1 for details on symmetry rotations/translations

                         Centre of mass is constrained
             Set iprint > 1 for details of linear ionic constraints

                         Number of cell constraints= 3
                         Cell constraints are:  1 2 3 0 0 0

                         External pressure/stress (GPa)
                        210.00000   0.00000   0.00000
                                  210.00000   0.00000
                                            210.00000
  
+---------------- MEMORY AND SCRATCH DISK ESTIMATES PER PROCESS --------------+
|                                                     Memory          Disk    |
| Baseline code, static data and system overhead      479.0 MB         0.0 MB |
| BLAS internal memory storage                          0.0 MB         0.0 MB |
| Model and support data                               94.8 MB         0.0 MB |
| Electronic energy minimisation requirements         117.7 MB         0.0 MB |
| Force calculation requirements                       23.7 MB         0.0 MB |
| Stress calculation requirements                      30.1 MB         0.0 MB |
|                                               ----------------------------- |
| Approx. total storage required per process          691.6 MB         0.0 MB |
|                                                                             |
| Requirements will fluctuate during execution and may exceed these estimates |
+-----------------------------------------------------------------------------+
Calculating finite basis set correction with  3 cut-off energies.
Calculating total energy with cut-off of 1590.000 eV.
------------------------------------------------------------------------ <-- SCF
SCF loop      Energy                           Energy gain       Timer   <-- SCF
                                               per atom          (sec)   <-- SCF
------------------------------------------------------------------------ <-- SCF
Initial   1.08861986E+003                                         12.46  <-- SCF
      1  -5.80162860E+002                    3.47663067E+001      28.69  <-- SCF
      2  -6.92705258E+002                    2.34463328E+000      39.92  <-- SCF
      3  -6.93567304E+002                    1.79593049E-002      56.58  <-- SCF
      4  -6.93547977E+002                   -4.02655584E-004      73.19  <-- SCF
      5  -6.93548812E+002                    1.74092710E-005      89.70  <-- SCF
      6  -6.93548872E+002                    1.24427745E-006     106.27  <-- SCF
      7  -6.93548873E+002                    1.47594310E-008     122.78  <-- SCF
      8  -6.93548873E+002                    6.72053296E-010     139.33  <-- SCF
      9  -6.93548873E+002                    1.60096608E-011     151.43  <-- SCF
     10  -6.93548873E+002                    1.01105167E-012     163.20  <-- SCF
     11  -6.93548873E+002                   -1.93348527E-013     175.20  <-- SCF
------------------------------------------------------------------------ <-- SCF
 
Final energy =  -693.5488728524     eV
(energy not corrected for finite basis set)
 
Calculating total energy with cut-off of 1595.000 eV.
------------------------------------------------------------------------ <-- SCF
SCF loop      Energy                           Energy gain       Timer   <-- SCF
                                               per atom          (sec)   <-- SCF
------------------------------------------------------------------------ <-- SCF
Initial  -6.93548873E+002                                        181.73  <-- SCF
      1  -6.93548998E+002                    2.60818901E-006     194.83  <-- SCF
      2  -6.93548998E+002                    1.98182240E-012     206.53  <-- SCF
      3  -6.93548998E+002                    5.16862907E-010     218.22  <-- SCF
      4  -6.93548998E+002                    2.69137121E-011     229.97  <-- SCF
      5  -6.93548998E+002                    1.26683566E-012     241.66  <-- SCF
      6  -6.93548998E+002                   -4.89413458E-013     253.39  <-- SCF
------------------------------------------------------------------------ <-- SCF
 
Final energy =  -693.5489980717     eV
(energy not corrected for finite basis set)
 
Calculating total energy with cut-off of 1600.000 eV.
------------------------------------------------------------------------ <-- SCF
SCF loop      Energy                           Energy gain       Timer   <-- SCF
                                               per atom          (sec)   <-- SCF
------------------------------------------------------------------------ <-- SCF
Initial  -6.93548998E+002                                        259.97  <-- SCF
      1  -6.93549117E+002                    2.48310513E-006     273.15  <-- SCF
      2  -6.93549117E+002                    1.93147122E-012     284.85  <-- SCF
      3  -6.93549117E+002                    4.89048916E-010     296.61  <-- SCF
      4  -6.93549117E+002                    2.52360108E-011     308.40  <-- SCF
      5  -6.93549117E+002                    6.86790079E-013     320.18  <-- SCF
      6  -6.93549117E+002                    4.55174657E-013     331.95  <-- SCF
------------------------------------------------------------------------ <-- SCF
 
Final energy =  -693.5491172856     eV
(energy not corrected for finite basis set)
 
 For future reference: finite basis dEtot/dlog(Ecut) =      -0.038858eV
 Total energy corrected for finite basis set =    -693.549117 eV
 
+---------------- MEMORY AND SCRATCH DISK ESTIMATES PER PROCESS --------------+
|                                                     Memory          Disk    |
| Model and support data                               96.3 MB         0.0 MB |
| Electronic energy minimisation requirements         117.7 MB         0.0 MB |
| Geometry minimisation requirements                  150.1 MB         0.0 MB |
|                                               ----------------------------- |
| Approx. total storage required per process          364.2 MB         0.0 MB |
|                                                                             |
| Requirements will fluctuate during execution and may exceed these estimates |
+-----------------------------------------------------------------------------+
 

 ******************************** Symmetrised Forces ********************************
 *                                                                                  *
 *                           Cartesian components (eV/A)                            *
 * -------------------------------------------------------------------------------- *
 *                         x                    y                    z              *
 *                                                                                  *
 * H               1      0.00000             -0.00000              0.00000         *
 * H               2     -0.00000             -0.00000             -0.00000         *
 * H               3      0.00000             -0.00000             -0.00000         *
 * H               4      0.00000             -0.00000             -0.00000         *
 * H               5      0.00000             -0.00000              0.00000         *
 * H               6     -0.00000              0.00000              0.00000         *
 * H               7     -0.00000             -0.00000              0.00000         *
 * H               8      0.00000              0.00000              0.00000         *
 * H               9      0.00000              0.00000             -0.00000         *
 * H              10      0.00000              0.00000             -0.00000         *
 * H              11     -0.00000              0.00000             -0.00000         *
 * H              12      0.00000              0.00000              0.00000         *
 * H              13      0.00000              0.00000              0.00000         *
 * H              14     -0.00000             -0.00000              0.00000         *
 * H              15     -0.00000             -0.00000             -0.00000         *
 * H              16     -0.00000             -0.00000             -0.00000         *
 * H              17      0.00000             -0.00000             -0.00000         *
 * H              18     -0.00000             -0.00000              0.00000         *
 * H              19     -0.00000              0.00000             -0.00000         *
 * H              20      0.00000             -0.00000             -0.00000         *
 * H              21      0.00000             -0.00000              0.00000         *
 * H              22      0.00000             -0.00000              0.00000         *
 * H              23     -0.00000             -0.00000              0.00000         *
 * H              24      0.00000             -0.00000             -0.00000         *
 * H              25      0.00000             -0.00000             -0.00000         *
 * H              26     -0.00000              0.00000             -0.00000         *
 * H              27     -0.00000              0.00000              0.00000         *
 * H              28     -0.00000              0.00000              0.00000         *
 * H              29      0.00000              0.00000              0.00000         *
 * H              30     -0.00000              0.00000             -0.00000         *
 * H              31      0.00000              0.00000             -0.00000         *
 * H              32     -0.00000             -0.00000             -0.00000         *
 * H              33     -0.00000             -0.00000              0.00000         *
 * H              34     -0.00000             -0.00000              0.00000         *
 * H              35      0.00000             -0.00000              0.00000         *
 * H              36     -0.00000             -0.00000             -0.00000         *
 * H              37     -0.00000             -0.00000             -0.00000         *
 * H              38      0.00000              0.00000             -0.00000         *
 * H              39      0.00000              0.00000              0.00000         *
 * H              40      0.00000              0.00000              0.00000         *
 * H              41     -0.00000              0.00000              0.00000         *
 * H              42      0.00000              0.00000             -0.00000         *
 * H              43      0.00000             -0.00000              0.00000         *
 * H              44     -0.00000              0.00000              0.00000         *
 * H              45     -0.00000              0.00000             -0.00000         *
 * H              46     -0.00000              0.00000             -0.00000         *
 * H              47      0.00000              0.00000             -0.00000         *
 * H              48     -0.00000              0.00000              0.00000         *
 *                                                                                  *
 ************************************************************************************

 *********** Symmetrised Stress Tensor ***********
 *                                               *
 *          Cartesian components (GPa)           *
 * --------------------------------------------- *
 *             x             y             z     *
 *                                               *
 *  x   -239.996858     -0.000000      0.000000  *
 *  y     -0.000000   -239.996853      0.000000  *
 *  z      0.000000      0.000000   -239.996859  *
 *                                               *
 *  Pressure:  239.9969                          *
 *                                               *
 *************************************************
 LBFGS: finished iteration     0 with enthalpy= -5.92779762E+002 eV
  
 +-----------+-----------------+-----------------+------------+-----+ <-- LBFGS
 | Parameter |      value      |    tolerance    |    units   | OK? | <-- LBFGS
 +-----------+-----------------+-----------------+------------+-----+ <-- LBFGS
 |  dE/ion   |   0.000000E+000 |   1.000000E-009 |         eV | No  | <-- LBFGS
 |  |F|max   |   2.529144E-007 |   1.000000E-005 |       eV/A | Yes | <-- LBFGS
 |  |dR|max  |   0.000000E+000 |   1.000000E-005 |          A | No  | <-- LBFGS
 |   Smax    |   2.999686E+001 |   1.000000E-005 |        GPa | No  | <-- LBFGS
 +-----------+-----------------+-----------------+------------+-----+ <-- LBFGS
  

================================================================================
 Starting LBFGS iteration          1 ...
================================================================================
  
 +------------+-------------+-------------+-----------------+ <-- min LBFGS
 |    Step    |   lambda    |   F.delta'  |    enthalpy     | <-- min LBFGS
 +------------+-------------+-------------+-----------------+ <-- min LBFGS
 |  previous  |    0.000000 |    0.916210 |     -592.779762 | <-- min LBFGS
 +------------+-------------+-------------+-----------------+ <-- min LBFGS
  

--------------------------------------------------------------------------------
 LBFGS: starting iteration         1 with trial guess (lambda=  1.000000)
--------------------------------------------------------------------------------
 
+---------------- MEMORY AND SCRATCH DISK ESTIMATES PER PROCESS --------------+
|                                                     Memory          Disk    |
| Model and support data                               98.8 MB         0.0 MB |
| Electronic energy minimisation requirements         123.7 MB         0.0 MB |
| Geometry minimisation requirements                  157.8 MB         0.0 MB |
|                                               ----------------------------- |
| Approx. total storage required per process          380.3 MB         0.0 MB |
|                                                                             |
| Requirements will fluctuate during execution and may exceed these estimates |
+-----------------------------------------------------------------------------+
 

                           -------------------------------
                                      Unit Cell
                           -------------------------------
        Real Lattice(A)              Reciprocal Lattice(1/A)
     2.9717920    -0.0000000     0.0000000        2.114274926   0.000000000   0.000000000
    -0.0000000     5.1701703     0.0000000        0.000000000   1.215276287   0.000000000
     0.0000000     0.0000000     5.3099955        0.000000000   0.000000000   1.183275062

                       Lattice parameters(A)       Cell Angles
                    a =      2.971792          alpha =   90.000000
                    b =      5.170170          beta  =   90.000000
                    c =      5.309996          gamma =   90.000000

                Current cell volume =            81.586332 A**3

                           -------------------------------
                                     Cell Contents
                           -------------------------------

            xxxxxxxxxxxxxxxxxxxxxxxxxxxxxxxxxxxxxxxxxxxxxxxxxxxxxxxxxxxxxxxxx
            x  Element         Atom        Fractional coordinates of atoms  x
            x                 Number           u          v          w      x
            x---------------------------------------------------------------x
            x  H                 1         0.402117   0.114819   0.010875   x
            x  H                 2         0.581803   0.212472   0.023166   x
            x  H                 3         0.578076   0.554926   0.003857   x
            x  H                 4         0.139369   0.171789   0.248931   x
            x  H                 5         0.312242   0.345740   0.244670   x
            x  H                 6         0.173303   0.484263   0.250476   x
            x  H                 7         0.173303   0.515737   0.750476   x
            x  H                 8         0.312242   0.654260   0.744670   x
            x  H                 9         0.139369   0.828211   0.748931   x
            x  H                10         0.578076   0.445074   0.503857   x
            x  H                11         0.581803   0.787528   0.523166   x
            x  H                12         0.402117   0.885181   0.510875   x
            x  H                13         0.326697   0.984263   0.250476   x
            x  H                14         0.187758   0.845740   0.244670   x
            x  H                15         0.360631   0.671789   0.248931   x
            x  H                16        -0.078076   0.054926   0.003857   x
            x  H                17        -0.081803   0.712472   0.023166   x
            x  H                18         0.097883   0.614819   0.010875   x
            x  H                19         0.673303   0.984263   0.249524   x
            x  H                20         0.812242   0.845740   0.255330   x
            x  H                21         0.639369   0.671789   0.251069   x
            x  H                22         1.078076   0.054926   0.496143   x
            x  H                23         1.081803   0.712472   0.476834   x
            x  H                24         0.902117   0.614819   0.489125   x
            x  H                25         0.826697   0.515737   0.749524   x
            x  H                26         0.687758   0.654260   0.755330   x
            x  H                27         0.860631   0.828211   0.751069   x
            x  H                28         0.421924   0.445074  -0.003857   x
            x  H                29         0.418197   0.787528   0.976834   x
            x  H                30         0.597883   0.885181   0.989125   x
            x  H                31         0.826697   0.484263   0.249524   x
            x  H                32         0.687758   0.345740   0.255330   x
            x  H                33         0.860631   0.171789   0.251069   x
            x  H                34         0.421924   0.554926   0.496143   x
            x  H                35         0.418197   0.212472   0.476834   x
            x  H                36         0.597883   0.114819   0.489125   x
            x  H                37         0.673303   0.015737   0.749524   x
            x  H                38         0.812242   0.154260   0.755330   x
            x  H                39         0.639369   0.328211   0.751069   x
            x  H                40         0.078076  -0.054926  -0.003857   x
            x  H                41         1.081803   0.287528   0.976834   x
            x  H                42         0.902117   0.385181   0.989125   x
            x  H                43         0.326697   0.015737   0.750476   x
            x  H                44         0.187758   0.154260   0.744670   x
            x  H                45         0.360631   0.328211   0.748931   x
            x  H                46         0.921924  -0.054926   0.503857   x
            x  H                47        -0.081803   0.287528   0.523166   x
            x  H                48         0.097883   0.385181   0.510875   x
            xxxxxxxxxxxxxxxxxxxxxxxxxxxxxxxxxxxxxxxxxxxxxxxxxxxxxxxxxxxxxxxxx


------------------------------------------------------------------------ <-- SCF
SCF loop      Energy                           Energy gain       Timer   <-- SCF
                                               per atom          (sec)   <-- SCF
------------------------------------------------------------------------ <-- SCF
Initial  -6.99916950E+002                                        349.36  <-- SCF
      1  -7.00039319E+002                    2.54937317E-003     362.66  <-- SCF
      2  -7.00039868E+002                    1.14243725E-005     379.76  <-- SCF
      3  -7.00038963E+002                   -1.88481872E-005     396.45  <-- SCF
      4  -7.00038974E+002                    2.32339722E-007     413.42  <-- SCF
      5  -7.00038976E+002                    2.53260428E-008     430.10  <-- SCF
      6  -7.00038976E+002                    2.53602574E-009     446.91  <-- SCF
      7  -7.00038976E+002                    1.57961718E-011     458.77  <-- SCF
      8  -7.00038976E+002                    9.00279077E-013     470.67  <-- SCF
      9  -7.00038976E+002                    2.19531140E-013     482.54  <-- SCF
------------------------------------------------------------------------ <-- SCF
 
Final energy =  -700.0389756326     eV
(energy not corrected for finite basis set)
 

 ******************************** Symmetrised Forces ********************************
 *                                                                                  *
 *                           Cartesian components (eV/A)                            *
 * -------------------------------------------------------------------------------- *
 *                         x                    y                    z              *
 *                                                                                  *
 * H               1      0.26481              0.25395              0.02937         *
 * H               2     -0.26811             -0.25290             -0.03719         *
 * H               3     -0.23715             -0.29172             -0.02208         *
 * H               4     -0.21346              0.02684              0.00436         *
 * H               5     -0.13012              0.17146              0.01432         *
 * H               6      0.08087             -0.19961             -0.01024         *
 * H               7      0.08087              0.19961             -0.01024         *
 * H               8     -0.13012             -0.17146              0.01432         *
 * H               9     -0.21346             -0.02684              0.00436         *
 * H              10     -0.23715              0.29172             -0.02208         *
 * H              11     -0.26811              0.25290             -0.03719         *
 * H              12      0.26481             -0.25395              0.02937         *
 * H              13     -0.08087             -0.19961             -0.01024         *
 * H              14      0.13012              0.17146              0.01432         *
 * H              15      0.21346              0.02684              0.00436         *
 * H              16      0.23715             -0.29172             -0.02208         *
 * H              17      0.26811             -0.25290             -0.03719         *
 * H              18     -0.26481              0.25395              0.02937         *
 * H              19      0.08087             -0.19961              0.01024         *
 * H              20     -0.13012              0.17146             -0.01432         *
 * H              21     -0.21346              0.02684             -0.00436         *
 * H              22     -0.23715             -0.29172              0.02208         *
 * H              23     -0.26811             -0.25290              0.03719         *
 * H              24      0.26481              0.25395             -0.02937         *
 * H              25     -0.08087              0.19961              0.01024         *
 * H              26      0.13012             -0.17146             -0.01432         *
 * H              27      0.21346             -0.02684             -0.00436         *
 * H              28      0.23715              0.29172              0.02208         *
 * H              29      0.26811              0.25290              0.03719         *
 * H              30     -0.26481             -0.25395             -0.02937         *
 * H              31     -0.08087             -0.19961              0.01024         *
 * H              32      0.13012              0.17146             -0.01432         *
 * H              33      0.21346              0.02684             -0.00436         *
 * H              34      0.23715             -0.29172              0.02208         *
 * H              35      0.26811             -0.25290              0.03719         *
 * H              36     -0.26481              0.25395             -0.02937         *
 * H              37      0.08087              0.19961              0.01024         *
 * H              38     -0.13012             -0.17146             -0.01432         *
 * H              39     -0.21346             -0.02684             -0.00436         *
 * H              40     -0.23715              0.29172              0.02208         *
 * H              41     -0.26811              0.25290              0.03719         *
 * H              42      0.26481             -0.25395             -0.02937         *
 * H              43     -0.08087              0.19961             -0.01024         *
 * H              44      0.13012             -0.17146              0.01432         *
 * H              45      0.21346             -0.02684              0.00436         *
 * H              46      0.23715              0.29172             -0.02208         *
 * H              47      0.26811              0.25290             -0.03719         *
 * H              48     -0.26481             -0.25395              0.02937         *
 *                                                                                  *
 ************************************************************************************

 *********** Symmetrised Stress Tensor ***********
 *                                               *
 *          Cartesian components (GPa)           *
 * --------------------------------------------- *
 *             x             y             z     *
 *                                               *
 *  x   -200.529977     -0.000000      0.000000  *
 *  y     -0.000000   -200.394925      0.000000  *
 *  z      0.000000      0.000000   -208.573919  *
 *                                               *
 *  Pressure:  203.1663                          *
 *                                               *
 *************************************************
  
 +------------+-------------+-------------+-----------------+ <-- min LBFGS
 |    Step    |   lambda    |   F.delta'  |    enthalpy     | <-- min LBFGS
 +------------+-------------+-------------+-----------------+ <-- min LBFGS
 |  previous  |    0.000000 |    0.916210 |     -592.779762 | <-- min LBFGS
 | trial step |    1.000000 |   -0.217158 |     -593.102390 | <-- min LBFGS
 +------------+-------------+-------------+-----------------+ <-- min LBFGS
  
 LBFGS: finished iteration     1 with enthalpy= -5.93102390E+002 eV
  
 +-----------+-----------------+-----------------+------------+-----+ <-- LBFGS
 | Parameter |      value      |    tolerance    |    units   | OK? | <-- LBFGS
 +-----------+-----------------+-----------------+------------+-----+ <-- LBFGS
 |  dE/ion   |   6.721403E-003 |   1.000000E-009 |         eV | No  | <-- LBFGS
 |  |F|max   |   3.766001E-001 |   1.000000E-005 |       eV/A | No  | <-- LBFGS
 |  |dR|max  |   2.502357E-008 |   1.000000E-005 |          A | Yes | <-- LBFGS
 |   Smax    |   9.605075E+000 |   1.000000E-005 |        GPa | No  | <-- LBFGS
 +-----------+-----------------+-----------------+------------+-----+ <-- LBFGS
  

================================================================================
 Starting LBFGS iteration          2 ...
================================================================================
  
 +------------+-------------+-------------+-----------------+ <-- min LBFGS
 |    Step    |   lambda    |   F.delta'  |    enthalpy     | <-- min LBFGS
 +------------+-------------+-------------+-----------------+ <-- min LBFGS
 |  previous  |    0.000000 |    0.265903 |     -593.102390 | <-- min LBFGS
 +------------+-------------+-------------+-----------------+ <-- min LBFGS
  

--------------------------------------------------------------------------------
 LBFGS: starting iteration         2 with trial guess (lambda=  1.000000)
--------------------------------------------------------------------------------
 
+---------------- MEMORY AND SCRATCH DISK ESTIMATES PER PROCESS --------------+
|                                                     Memory          Disk    |
| Model and support data                               99.2 MB         0.0 MB |
| Electronic energy minimisation requirements         124.7 MB         0.0 MB |
| Geometry minimisation requirements                  159.2 MB         0.0 MB |
|                                               ----------------------------- |
| Approx. total storage required per process          383.1 MB         0.0 MB |
|                                                                             |
| Requirements will fluctuate during execution and may exceed these estimates |
+-----------------------------------------------------------------------------+
 

                           -------------------------------
                                      Unit Cell
                           -------------------------------
        Real Lattice(A)              Reciprocal Lattice(1/A)
     2.9767078    -0.0000000     0.0000000        2.110783348   0.000000000   0.000000000
    -0.0000000     5.1783387     0.0000000        0.000000000   1.213359275   0.000000000
     0.0000000     0.0000000     5.3422590        0.000000000   0.000000000   1.176128923

                       Lattice parameters(A)       Cell Angles
                    a =      2.976708          alpha =   90.000000
                    b =      5.178339          beta  =   90.000000
                    c =      5.342259          gamma =   90.000000

                Current cell volume =            82.347724 A**3

                           -------------------------------
                                     Cell Contents
                           -------------------------------

            xxxxxxxxxxxxxxxxxxxxxxxxxxxxxxxxxxxxxxxxxxxxxxxxxxxxxxxxxxxxxxxxx
            x  Element         Atom        Fractional coordinates of atoms  x
            x                 Number           u          v          w      x
            x---------------------------------------------------------------x
            x  H                 1         0.409387   0.118826   0.011327   x
            x  H                 2         0.574443   0.208481   0.022595   x
            x  H                 3         0.571566   0.550323   0.003517   x
            x  H                 4         0.133509   0.172212   0.248998   x
            x  H                 5         0.308670   0.348445   0.244890   x
            x  H                 6         0.175524   0.481113   0.250318   x
            x  H                 7         0.175524   0.518887   0.750318   x
            x  H                 8         0.308670   0.651555   0.744890   x
            x  H                 9         0.133509   0.827788   0.748998   x
            x  H                10         0.571566   0.449677   0.503517   x
            x  H                11         0.574443   0.791519   0.522595   x
            x  H                12         0.409387   0.881174   0.511327   x
            x  H                13         0.324476   0.981113   0.250318   x
            x  H                14         0.191330   0.848445   0.244890   x
            x  H                15         0.366491   0.672212   0.248998   x
            x  H                16        -0.071566   0.050323   0.003517   x
            x  H                17        -0.074443   0.708481   0.022595   x
            x  H                18         0.090613   0.618826   0.011327   x
            x  H                19         0.675524   0.981113   0.249682   x
            x  H                20         0.808670   0.848445   0.255110   x
            x  H                21         0.633509   0.672212   0.251002   x
            x  H                22         1.071566   0.050323   0.496483   x
            x  H                23         1.074443   0.708481   0.477405   x
            x  H                24         0.909387   0.618826   0.488673   x
            x  H                25         0.824476   0.518887   0.749682   x
            x  H                26         0.691330   0.651555   0.755110   x
            x  H                27         0.866491   0.827788   0.751002   x
            x  H                28         0.428434   0.449677  -0.003517   x
            x  H                29         0.425557   0.791519   0.977405   x
            x  H                30         0.590613   0.881174   0.988673   x
            x  H                31         0.824476   0.481113   0.249682   x
            x  H                32         0.691330   0.348445   0.255110   x
            x  H                33         0.866491   0.172212   0.251002   x
            x  H                34         0.428434   0.550323   0.496483   x
            x  H                35         0.425557   0.208481   0.477405   x
            x  H                36         0.590613   0.118826   0.488673   x
            x  H                37         0.675524   0.018887   0.749682   x
            x  H                38         0.808670   0.151555   0.755110   x
            x  H                39         0.633509   0.327788   0.751002   x
            x  H                40         0.071566  -0.050323  -0.003517   x
            x  H                41         1.074443   0.291519   0.977405   x
            x  H                42         0.909387   0.381174   0.988673   x
            x  H                43         0.324476   0.018887   0.750318   x
            x  H                44         0.191330   0.151555   0.744890   x
            x  H                45         0.366491   0.327788   0.748998   x
            x  H                46         0.928434  -0.050323   0.503517   x
            x  H                47        -0.074443   0.291519   0.522595   x
            x  H                48         0.090613   0.381174   0.511327   x
            xxxxxxxxxxxxxxxxxxxxxxxxxxxxxxxxxxxxxxxxxxxxxxxxxxxxxxxxxxxxxxxxx


------------------------------------------------------------------------ <-- SCF
SCF loop      Energy                           Energy gain       Timer   <-- SCF
                                               per atom          (sec)   <-- SCF
------------------------------------------------------------------------ <-- SCF
Initial  -6.97659624E+002                                        499.90  <-- SCF
      1  -7.00817940E+002                    6.57982674E-002     513.08  <-- SCF
      2  -7.00835036E+002                    3.56161216E-004     529.83  <-- SCF
      3  -7.00566990E+002                   -5.58430178E-003     546.53  <-- SCF
      4  -7.00558484E+002                   -1.77199930E-004     563.65  <-- SCF
      5  -7.00558481E+002                   -6.15892256E-008     580.30  <-- SCF
      6  -7.00558481E+002                    5.17625828E-009     597.15  <-- SCF
      7  -7.00558481E+002                    4.80350246E-011     613.84  <-- SCF
      8  -7.00558481E+002                    2.95702403E-011     625.68  <-- SCF
      9  -7.00558481E+002                    1.97175216E-012     637.50  <-- SCF
     10  -7.00558481E+002                   -3.60514440E-013     649.37  <-- SCF
------------------------------------------------------------------------ <-- SCF
 
Final energy =  -700.5584813389     eV
(energy not corrected for finite basis set)
 

 ******************************** Symmetrised Forces ********************************
 *                                                                                  *
 *                           Cartesian components (eV/A)                            *
 * -------------------------------------------------------------------------------- *
 *                         x                    y                    z              *
 *                                                                                  *
 * H               1     -1.34029             -1.24811             -0.10304         *
 * H               2      1.36296              1.29530              0.24489         *
 * H               3      1.20956              1.48834              0.11029         *
 * H               4      0.11050             -0.05308              0.00527         *
 * H               5      0.10928             -0.07901              0.00521         *
 * H               6     -0.00384              0.12727              0.01174         *
 * H               7     -0.00384             -0.12727              0.01174         *
 * H               8      0.10928              0.07901              0.00521         *
 * H               9      0.11050              0.05308              0.00527         *
 * H              10      1.20956             -1.48834              0.11029         *
 * H              11      1.36296             -1.29530              0.24489         *
 * H              12     -1.34029              1.24811             -0.10304         *
 * H              13      0.00384              0.12727              0.01174         *
 * H              14     -0.10928             -0.07901              0.00521         *
 * H              15     -0.11050             -0.05308              0.00527         *
 * H              16     -1.20956              1.48834              0.11029         *
 * H              17     -1.36296              1.29530              0.24489         *
 * H              18      1.34029             -1.24811             -0.10304         *
 * H              19     -0.00384              0.12727             -0.01174         *
 * H              20      0.10928             -0.07901             -0.00521         *
 * H              21      0.11050             -0.05308             -0.00527         *
 * H              22      1.20956              1.48834             -0.11029         *
 * H              23      1.36296              1.29530             -0.24489         *
 * H              24     -1.34029             -1.24811              0.10304         *
 * H              25      0.00384             -0.12727             -0.01174         *
 * H              26     -0.10928              0.07901             -0.00521         *
 * H              27     -0.11050              0.05308             -0.00527         *
 * H              28     -1.20956             -1.48834             -0.11029         *
 * H              29     -1.36296             -1.29530             -0.24489         *
 * H              30      1.34029              1.24811              0.10304         *
 * H              31      0.00384              0.12727             -0.01174         *
 * H              32     -0.10928             -0.07901             -0.00521         *
 * H              33     -0.11050             -0.05308             -0.00527         *
 * H              34     -1.20956              1.48834             -0.11029         *
 * H              35     -1.36296              1.29530             -0.24489         *
 * H              36      1.34029             -1.24811              0.10304         *
 * H              37     -0.00384             -0.12727             -0.01174         *
 * H              38      0.10928              0.07901             -0.00521         *
 * H              39      0.11050              0.05308             -0.00527         *
 * H              40      1.20956             -1.48834             -0.11029         *
 * H              41      1.36296             -1.29530             -0.24489         *
 * H              42     -1.34029              1.24811              0.10304         *
 * H              43      0.00384             -0.12727              0.01174         *
 * H              44     -0.10928              0.07901              0.00521         *
 * H              45     -0.11050              0.05308              0.00527         *
 * H              46     -1.20956             -1.48834              0.11029         *
 * H              47     -1.36296             -1.29530              0.24489         *
 * H              48      1.34029              1.24811             -0.10304         *
 *                                                                                  *
 ************************************************************************************

 *********** Symmetrised Stress Tensor ***********
 *                                               *
 *          Cartesian components (GPa)           *
 * --------------------------------------------- *
 *             x             y             z     *
 *                                               *
 *  x   -218.180421      0.000000      0.000000  *
 *  y      0.000000   -218.358562      0.000000  *
 *  z      0.000000      0.000000   -198.924015  *
 *                                               *
 *  Pressure:  211.8210                          *
 *                                               *
 *************************************************
  
 +------------+-------------+-------------+-----------------+ <-- min LBFGS
 |    Step    |   lambda    |   F.delta'  |    enthalpy     | <-- min LBFGS
 +------------+-------------+-------------+-----------------+ <-- min LBFGS
 |  previous  |    0.000000 |    0.265903 |     -593.102390 | <-- min LBFGS
 | trial step |    1.000000 |   -1.125672 |     -592.623926 | <-- min LBFGS
 +------------+-------------+-------------+-----------------+ <-- min LBFGS
  

--------------------------------------------------------------------------------
 LBFGS: improving iteration         2 with line minimization (lambda=  0.191080)
--------------------------------------------------------------------------------

                           -------------------------------
                                      Unit Cell
                           -------------------------------
        Real Lattice(A)              Reciprocal Lattice(1/A)
     2.9727313    -0.0000000     0.0000000        2.113606862   0.000000000   0.000000000
    -0.0000000     5.1717311     0.0000000        0.000000000   1.214909516   0.000000000
     0.0000000     0.0000000     5.3161605        0.000000000   0.000000000   1.181902872

                       Lattice parameters(A)       Cell Angles
                    a =      2.972731          alpha =   90.000000
                    b =      5.171731          beta  =   90.000000
                    c =      5.316160          gamma =   90.000000

                Current cell volume =            81.731538 A**3

                           -------------------------------
                                     Cell Contents
                           -------------------------------

            xxxxxxxxxxxxxxxxxxxxxxxxxxxxxxxxxxxxxxxxxxxxxxxxxxxxxxxxxxxxxxxxx
            x  Element         Atom        Fractional coordinates of atoms  x
            x                 Number           u          v          w      x
            x---------------------------------------------------------------x
            x  H                 1         0.403506   0.115584   0.010962   x
            x  H                 2         0.580397   0.211710   0.023057   x
            x  H                 3         0.576832   0.554047   0.003792   x
            x  H                 4         0.138249   0.171870   0.248944   x
            x  H                 5         0.311559   0.346257   0.244712   x
            x  H                 6         0.173728   0.483661   0.250446   x
            x  H                 7         0.173728   0.516339   0.750446   x
            x  H                 8         0.311559   0.653743   0.744712   x
            x  H                 9         0.138249   0.828130   0.748944   x
            x  H                10         0.576832   0.445953   0.503792   x
            x  H                11         0.580397   0.788290   0.523057   x
            x  H                12         0.403506   0.884416   0.510962   x
            x  H                13         0.326272   0.983661   0.250446   x
            x  H                14         0.188441   0.846257   0.244712   x
            x  H                15         0.361751   0.671870   0.248944   x
            x  H                16        -0.076832   0.054047   0.003792   x
            x  H                17        -0.080397   0.711710   0.023057   x
            x  H                18         0.096494   0.615584   0.010962   x
            x  H                19         0.673728   0.983661   0.249554   x
            x  H                20         0.811559   0.846257   0.255288   x
            x  H                21         0.638249   0.671870   0.251056   x
            x  H                22         1.076832   0.054047   0.496208   x
            x  H                23         1.080397   0.711710   0.476943   x
            x  H                24         0.903506   0.615584   0.489038   x
            x  H                25         0.826272   0.516339   0.749554   x
            x  H                26         0.688441   0.653743   0.755288   x
            x  H                27         0.861751   0.828130   0.751056   x
            x  H                28         0.423168   0.445953  -0.003792   x
            x  H                29         0.419603   0.788290   0.976943   x
            x  H                30         0.596494   0.884416   0.989038   x
            x  H                31         0.826272   0.483661   0.249554   x
            x  H                32         0.688441   0.346257   0.255288   x
            x  H                33         0.861751   0.171870   0.251056   x
            x  H                34         0.423168   0.554047   0.496208   x
            x  H                35         0.419603   0.211710   0.476943   x
            x  H                36         0.596494   0.115584   0.489038   x
            x  H                37         0.673728   0.016339   0.749554   x
            x  H                38         0.811559   0.153743   0.755288   x
            x  H                39         0.638249   0.328130   0.751056   x
            x  H                40         0.076832  -0.054047  -0.003792   x
            x  H                41         1.080397   0.288290   0.976943   x
            x  H                42         0.903506   0.384416   0.989038   x
            x  H                43         0.326272   0.016339   0.750446   x
            x  H                44         0.188441   0.153743   0.744712   x
            x  H                45         0.361751   0.328130   0.748944   x
            x  H                46         0.923168  -0.054047   0.503792   x
            x  H                47        -0.080397   0.288290   0.523057   x
            x  H                48         0.096494   0.384416   0.510962   x
            xxxxxxxxxxxxxxxxxxxxxxxxxxxxxxxxxxxxxxxxxxxxxxxxxxxxxxxxxxxxxxxxx


------------------------------------------------------------------------ <-- SCF
SCF loop      Energy                           Energy gain       Timer   <-- SCF
                                               per atom          (sec)   <-- SCF
------------------------------------------------------------------------ <-- SCF
Initial  -6.98322402E+002                                        666.68  <-- SCF
      1  -7.00441793E+002                    4.41539633E-002     679.90  <-- SCF
      2  -7.00454547E+002                    2.65710960E-004     696.56  <-- SCF
      3  -7.00273929E+002                   -3.76286211E-003     713.20  <-- SCF
      4  -7.00268632E+002                   -1.10360143E-004     730.24  <-- SCF
      5  -7.00268623E+002                   -1.79434808E-007     746.86  <-- SCF
      6  -7.00268623E+002                   -5.04364737E-009     763.77  <-- SCF
      7  -7.00268623E+002                   -4.56121259E-011     780.89  <-- SCF
      8  -7.00268623E+002                    1.78484859E-011     793.62  <-- SCF
      9  -7.00268623E+002                    1.39774872E-012     805.40  <-- SCF
     10  -7.00268623E+002                   -2.83980649E-013     817.19  <-- SCF
------------------------------------------------------------------------ <-- SCF
 
Final energy =  -700.2686231913     eV
(energy not corrected for finite basis set)
 

 ******************************** Symmetrised Forces ********************************
 *                                                                                  *
 *                           Cartesian components (eV/A)                            *
 * -------------------------------------------------------------------------------- *
 *                         x                    y                    z              *
 *                                                                                  *
 * H               1      0.01701              0.02253              0.01131         *
 * H               2     -0.01549             -0.01248              0.01024         *
 * H               3     -0.01567             -0.01825             -0.00149         *
 * H               4     -0.16441              0.01253              0.00480         *
 * H               5     -0.09163              0.13433              0.01299         *
 * H               6      0.07042             -0.14876             -0.00616         *
 * H               7      0.07042              0.14876             -0.00616         *
 * H               8     -0.09163             -0.13433              0.01299         *
 * H               9     -0.16441             -0.01253              0.00480         *
 * H              10     -0.01567              0.01825             -0.00149         *
 * H              11     -0.01549              0.01248              0.01024         *
 * H              12      0.01701             -0.02253              0.01131         *
 * H              13     -0.07042             -0.14876             -0.00616         *
 * H              14      0.09163              0.13433              0.01299         *
 * H              15      0.16441              0.01253              0.00480         *
 * H              16      0.01567             -0.01825             -0.00149         *
 * H              17      0.01549             -0.01248              0.01024         *
 * H              18     -0.01701              0.02253              0.01131         *
 * H              19      0.07042             -0.14876              0.00616         *
 * H              20     -0.09163              0.13433             -0.01299         *
 * H              21     -0.16441              0.01253             -0.00480         *
 * H              22     -0.01567             -0.01825              0.00149         *
 * H              23     -0.01549             -0.01248             -0.01024         *
 * H              24      0.01701              0.02253             -0.01131         *
 * H              25     -0.07042              0.14876              0.00616         *
 * H              26      0.09163             -0.13433             -0.01299         *
 * H              27      0.16441             -0.01253             -0.00480         *
 * H              28      0.01567              0.01825              0.00149         *
 * H              29      0.01549              0.01248             -0.01024         *
 * H              30     -0.01701             -0.02253             -0.01131         *
 * H              31     -0.07042             -0.14876              0.00616         *
 * H              32      0.09163              0.13433             -0.01299         *
 * H              33      0.16441              0.01253             -0.00480         *
 * H              34      0.01567             -0.01825              0.00149         *
 * H              35      0.01549             -0.01248             -0.01024         *
 * H              36     -0.01701              0.02253             -0.01131         *
 * H              37      0.07042              0.14876              0.00616         *
 * H              38     -0.09163             -0.13433             -0.01299         *
 * H              39     -0.16441             -0.01253             -0.00480         *
 * H              40     -0.01567              0.01825              0.00149         *
 * H              41     -0.01549              0.01248             -0.01024         *
 * H              42      0.01701             -0.02253             -0.01131         *
 * H              43     -0.07042              0.14876             -0.00616         *
 * H              44      0.09163             -0.13433              0.01299         *
 * H              45      0.16441             -0.01253              0.00480         *
 * H              46      0.01567              0.01825             -0.00149         *
 * H              47      0.01549              0.01248              0.01024         *
 * H              48     -0.01701             -0.02253              0.01131         *
 *                                                                                  *
 ************************************************************************************

 *********** Symmetrised Stress Tensor ***********
 *                                               *
 *          Cartesian components (GPa)           *
 * --------------------------------------------- *
 *             x             y             z     *
 *                                               *
 *  x   -203.479158     -0.000000      0.000000  *
 *  y     -0.000000   -203.366059      0.000000  *
 *  z      0.000000      0.000000   -206.753906  *
 *                                               *
 *  Pressure:  204.5330                          *
 *                                               *
 *************************************************
  
 +------------+-------------+-------------+-----------------+ <-- min LBFGS
 |    Step    |   lambda    |   F.delta'  |    enthalpy     | <-- min LBFGS
 +------------+-------------+-------------+-----------------+ <-- min LBFGS
 |  previous  |    0.000000 |    0.265903 |     -593.102390 | <-- min LBFGS
 | trial step |    1.000000 |   -1.125672 |     -592.623926 | <-- min LBFGS
 |  line step |    0.191080 |    0.051158 |     -593.141713 | <-- min LBFGS
 +------------+-------------+-------------+-----------------+ <-- min LBFGS
  
 LBFGS: finished iteration     2 with enthalpy= -5.93141713E+002 eV
  
 +-----------+-----------------+-----------------+------------+-----+ <-- LBFGS
 | Parameter |      value      |    tolerance    |    units   | OK? | <-- LBFGS
 +-----------+-----------------+-----------------+------------+-----+ <-- LBFGS
 |  dE/ion   |   8.192421E-004 |   1.000000E-009 |         eV | No  | <-- LBFGS
 |  |F|max   |   1.649575E-001 |   1.000000E-005 |       eV/A | No  | <-- LBFGS
 |  |dR|max  |   5.872599E-003 |   1.000000E-005 |          A | No  | <-- LBFGS
 |   Smax    |   6.633941E+000 |   1.000000E-005 |        GPa | No  | <-- LBFGS
 +-----------+-----------------+-----------------+------------+-----+ <-- LBFGS
  

================================================================================
 Starting LBFGS iteration          3 ...
================================================================================
  
 +------------+-------------+-------------+-----------------+ <-- min LBFGS
 |    Step    |   lambda    |   F.delta'  |    enthalpy     | <-- min LBFGS
 +------------+-------------+-------------+-----------------+ <-- min LBFGS
 |  previous  |    0.000000 |    0.139214 |     -593.141713 | <-- min LBFGS
 +------------+-------------+-------------+-----------------+ <-- min LBFGS
  

--------------------------------------------------------------------------------
 LBFGS: starting iteration         3 with trial guess (lambda=  1.000000)
--------------------------------------------------------------------------------

                           -------------------------------
                                      Unit Cell
                           -------------------------------
        Real Lattice(A)              Reciprocal Lattice(1/A)
     2.9632282    -0.0000000     0.0000000        2.120385212   0.000000000   0.000000000
    -0.0000000     5.1547685     0.0000000        0.000000000   1.218907379   0.000000000
     0.0000000     0.0000000     5.3099501        0.000000000   0.000000000   1.183285192

                       Lattice parameters(A)       Cell Angles
                    a =      2.963228          alpha =   90.000000
                    b =      5.154768          beta  =   90.000000
                    c =      5.309950          gamma =   90.000000

                Current cell volume =            81.108189 A**3

                           -------------------------------
                                     Cell Contents
                           -------------------------------

            xxxxxxxxxxxxxxxxxxxxxxxxxxxxxxxxxxxxxxxxxxxxxxxxxxxxxxxxxxxxxxxxx
            x  Element         Atom        Fractional coordinates of atoms  x
            x                 Number           u          v          w      x
            x---------------------------------------------------------------x
            x  H                 1         0.403012   0.115463   0.011153   x
            x  H                 2         0.580970   0.212072   0.023393   x
            x  H                 3         0.577256   0.554371   0.003813   x
            x  H                 4         0.132309   0.172102   0.249045   x
            x  H                 5         0.308299   0.349054   0.244981   x
            x  H                 6         0.176320   0.480589   0.250326   x
            x  H                 7         0.176320   0.519411   0.750326   x
            x  H                 8         0.308299   0.650946   0.744981   x
            x  H                 9         0.132309   0.827898   0.749045   x
            x  H                10         0.577256   0.445629   0.503813   x
            x  H                11         0.580970   0.787928   0.523393   x
            x  H                12         0.403012   0.884537   0.511153   x
            x  H                13         0.323680   0.980589   0.250326   x
            x  H                14         0.191701   0.849054   0.244981   x
            x  H                15         0.367691   0.672102   0.249045   x
            x  H                16        -0.077256   0.054371   0.003813   x
            x  H                17        -0.080970   0.712072   0.023393   x
            x  H                18         0.096988   0.615463   0.011153   x
            x  H                19         0.676320   0.980589   0.249674   x
            x  H                20         0.808299   0.849054   0.255019   x
            x  H                21         0.632309   0.672102   0.250955   x
            x  H                22         1.077256   0.054371   0.496187   x
            x  H                23         1.080970   0.712072   0.476607   x
            x  H                24         0.903012   0.615463   0.488847   x
            x  H                25         0.823680   0.519411   0.749674   x
            x  H                26         0.691701   0.650946   0.755019   x
            x  H                27         0.867691   0.827898   0.750955   x
            x  H                28         0.422744   0.445629  -0.003813   x
            x  H                29         0.419030   0.787928   0.976607   x
            x  H                30         0.596988   0.884537   0.988847   x
            x  H                31         0.823680   0.480589   0.249674   x
            x  H                32         0.691701   0.349054   0.255019   x
            x  H                33         0.867691   0.172102   0.250955   x
            x  H                34         0.422744   0.554371   0.496187   x
            x  H                35         0.419030   0.212072   0.476607   x
            x  H                36         0.596988   0.115463   0.488847   x
            x  H                37         0.676320   0.019411   0.749674   x
            x  H                38         0.808299   0.150946   0.755019   x
            x  H                39         0.632309   0.327898   0.750955   x
            x  H                40         0.077256  -0.054371  -0.003813   x
            x  H                41         1.080970   0.287928   0.976607   x
            x  H                42         0.903012   0.384537   0.988847   x
            x  H                43         0.323680   0.019411   0.750326   x
            x  H                44         0.191701   0.150946   0.744981   x
            x  H                45         0.367691   0.327898   0.749045   x
            x  H                46         0.922744  -0.054371   0.503813   x
            x  H                47        -0.080970   0.287928   0.523393   x
            x  H                48         0.096988   0.384537   0.511153   x
            xxxxxxxxxxxxxxxxxxxxxxxxxxxxxxxxxxxxxxxxxxxxxxxxxxxxxxxxxxxxxxxxx


------------------------------------------------------------------------ <-- SCF
SCF loop      Energy                           Energy gain       Timer   <-- SCF
                                               per atom          (sec)   <-- SCF
------------------------------------------------------------------------ <-- SCF
Initial  -6.98625949E+002                                        834.63  <-- SCF
      1  -6.99575995E+002                    1.97926238E-002     847.91  <-- SCF
      2  -6.99583514E+002                    1.56651422E-004     864.63  <-- SCF
      3  -6.99433857E+002                   -3.11784821E-003     881.26  <-- SCF
      4  -6.99430850E+002                   -6.26401564E-005     898.55  <-- SCF
      5  -6.99430849E+002                   -2.80818635E-008     915.23  <-- SCF
      6  -6.99430849E+002                   -1.55676782E-009     932.11  <-- SCF
      7  -6.99430849E+002                   -1.22180156E-010     948.77  <-- SCF
      8  -6.99430849E+002                    8.59393920E-012     960.56  <-- SCF
      9  -6.99430849E+002                    6.30396759E-013     972.37  <-- SCF
------------------------------------------------------------------------ <-- SCF
 
Final energy =  -699.4308489235     eV
(energy not corrected for finite basis set)
 

[...]
              H 2  -- H 14                  -0.02        2.47797
              H 20 -- H 35                  -0.02        2.47797
              H 12 -- H 29                   0.02        2.49299
              H 11 -- H 30                   0.02        2.49299
              H 42 -- H 47                   0.02        2.49299
              H 41 -- H 48                   0.02        2.49299
              H 18 -- H 23                   0.02        2.49299
              H 17 -- H 24                   0.02        2.49299
              H 2  -- H 36                   0.02        2.49299
              H 1  -- H 35                   0.02        2.49299
              H 34 -- H 46                   0.01        2.50387
              H 3  -- H 40                   0.01        2.50387
              H 16 -- H 28                   0.01        2.50387
              H 10 -- H 22                   0.01        2.50387
              H 16 -- H 21                   0.03        2.52494
              H 9  -- H 28                   0.03        2.52494
              H 15 -- H 22                   0.03        2.52494
              H 10 -- H 27                   0.03        2.52494
              H 4  -- H 34                   0.03        2.52494
              H 3  -- H 33                   0.03        2.52494
              H 40 -- H 45                   0.03        2.52494
              H 39 -- H 46                   0.03        2.52494
              H 11 -- H 48                   0.02        2.53635
              H 29 -- H 42                   0.02        2.53635
              H 1  -- H 17                   0.02        2.53635
              H 23 -- H 36                   0.02        2.53635
              H 12 -- H 47                   0.02        2.53635
              H 2  -- H 18                   0.02        2.53635
              H 30 -- H 41                   0.02        2.53635
              H 24 -- H 35                   0.02        2.53635
              H 14 -- H 28                   0.00        2.55645
              H 10 -- H 20                   0.00        2.55645
              H 5  -- H 40                   0.00        2.55645
              H 32 -- H 46                   0.00        2.55645
              H 34 -- H 44                   0.00        2.55645
              H 16 -- H 26                   0.00        2.55645
              H 8  -- H 22                   0.00        2.55645
              H 3  -- H 38                   0.00        2.55645
              H 6  -- H 12                   0.01        2.57901
              H 18 -- H 43                   0.01        2.57901
              H 24 -- H 37                   0.01        2.57901
              H 30 -- H 31                   0.01        2.57901
              H 1  -- H 7                    0.01        2.57901
              H 13 -- H 48                   0.01        2.57901
              H 25 -- H 36                   0.01        2.57901
              H 19 -- H 42                   0.01        2.57901
              H 13 -- H 34                   0.02        2.57991
              H 6  -- H 22                   0.02        2.57991
              H 25 -- H 46                   0.02        2.57991
              H 16 -- H 31                   0.02        2.57991
              H 10 -- H 37                   0.02        2.57991
              H 7  -- H 40                   0.02        2.57991
              H 28 -- H 43                   0.02        2.57991
              H 3  -- H 19                   0.02        2.57991
              H 23 -- H 45                   0.04        2.59764
              H 17 -- H 39                   0.04        2.59764
              H 11 -- H 33                   0.04        2.59764
              H 4  -- H 29                   0.04        2.59764
              H 9  -- H 35                   0.04        2.59764
              H 2  -- H 27                   0.04        2.59764
              H 21 -- H 47                   0.04        2.59764
              H 15 -- H 41                   0.04        2.59764
              H 13 -- H 24                   0.00        2.60045
              H 7  -- H 30                   0.00        2.60045
              H 6  -- H 36                   0.00        2.60045
              H 18 -- H 19                   0.00        2.60045
              H 12 -- H 25                   0.00        2.60045
              H 42 -- H 43                   0.00        2.60045
              H 1  -- H 31                   0.00        2.60045
              H 37 -- H 48                   0.00        2.60045
              H 12 -- H 30                   0.03        2.60183
              H 42 -- H 48                   0.03        2.60183
              H 1  -- H 36                   0.03        2.60183
              H 18 -- H 24                   0.03        2.60183
              H 5  -- H 14                  -0.06        2.60642
              H 20 -- H 32                  -0.06        2.60642
              H 8  -- H 44                  -0.06        2.60642
              H 26 -- H 38                  -0.06        2.60642
              H 27 -- H 42                   0.04        2.61946
              H 9  -- H 48                   0.04        2.61946
              H 21 -- H 36                   0.04        2.61946
              H 1  -- H 15                   0.04        2.61946
              H 24 -- H 33                   0.04        2.61946
              H 4  -- H 18                   0.04        2.61946
              H 30 -- H 39                   0.04        2.61946
              H 12 -- H 45                   0.04        2.61946
              H 7  -- H 43                  -0.05        2.61950
              H 6  -- H 13                  -0.05        2.61950
              H 25 -- H 37                  -0.05        2.61950
              H 19 -- H 31                  -0.05        2.61950
              H 9  -- H 14                   0.02        2.62799
              H 5  -- H 45                   0.02        2.62799
              H 32 -- H 39                   0.02        2.62799
              H 20 -- H 27                   0.02        2.62799
              H 8  -- H 15                   0.02        2.62799
              H 4  -- H 44                   0.02        2.62799
              H 33 -- H 38                   0.02        2.62799
              H 21 -- H 26                   0.02        2.62799
              H 40 -- H 46                   0.05        2.64349
              H 10 -- H 28                   0.05        2.64349
              H 16 -- H 22                   0.05        2.64349
              H 3  -- H 34                   0.05        2.64349
              H 13 -- H 43                   0.02        2.65352
              H 6  -- H 7                    0.02        2.65352
              H 25 -- H 31                   0.02        2.65352
              H 19 -- H 37                   0.02        2.65352
              H 29 -- H 45                   0.05        2.66553
              H 11 -- H 39                   0.05        2.66553
              H 17 -- H 33                   0.05        2.66553
              H 4  -- H 23                   0.05        2.66553
              H 27 -- H 47                   0.05        2.66553
              H 9  -- H 41                   0.05        2.66553
              H 15 -- H 35                   0.05        2.66553
              H 2  -- H 21                   0.05        2.66553
              H 25 -- H 40                   0.04        2.67025
              H 22 -- H 31                   0.04        2.67025
              H 7  -- H 46                   0.04        2.67025
              H 10 -- H 43                   0.04        2.67025
              H 28 -- H 37                   0.04        2.67025
              H 19 -- H 34                   0.04        2.67025
              H 3  -- H 13                   0.04        2.67025
              H 6  -- H 16                   0.04        2.67025
              H 27 -- H 39                   0.01        2.67081
              H 9  -- H 45                   0.01        2.67081
              H 21 -- H 33                   0.01        2.67081
              H 4  -- H 15                   0.01        2.67081
              H 9  -- H 10                   0.03        2.70196
              H 21 -- H 22                   0.03        2.70196
              H 27 -- H 28                   0.03        2.70196
              H 15 -- H 16                   0.03        2.70196
              H 3  -- H 4                    0.03        2.70196
              H 33 -- H 34                   0.03        2.70196
              H 45 -- H 46                   0.03        2.70196
              H 39 -- H 40                   0.03        2.70196
              H 28 -- H 34                   0.04        2.70714
              H 3  -- H 10                   0.04        2.70714
              H 22 -- H 40                   0.04        2.70714
              H 16 -- H 46                   0.04        2.70714
              H 23 -- H 44                   0.02        2.71455
              H 17 -- H 38                   0.02        2.71455
              H 11 -- H 32                   0.02        2.71455
              H 8  -- H 35                   0.02        2.71455
              H 5  -- H 29                   0.02        2.71455
              H 2  -- H 26                   0.02        2.71455
              H 14 -- H 41                   0.02        2.71455
              H 20 -- H 47                   0.02        2.71455
              H 9  -- H 42                   0.05        2.71492
              H 27 -- H 48                   0.05        2.71492
              H 15 -- H 36                   0.05        2.71492
              H 1  -- H 21                   0.05        2.71492
              H 4  -- H 24                   0.05        2.71492
              H 18 -- H 33                   0.05        2.71492
              H 30 -- H 45                   0.05        2.71492
              H 12 -- H 39                   0.05        2.71492
              H 29 -- H 39                   0.05        2.72900
              H 11 -- H 45                   0.05        2.72900
              H 23 -- H 33                   0.05        2.72900
              H 4  -- H 17                   0.05        2.72900
              H 27 -- H 41                   0.05        2.72900
              H 9  -- H 47                   0.05        2.72900
              H 21 -- H 35                   0.05        2.72900
              H 2  -- H 15                   0.05        2.72900
              H 12 -- H 48                   0.03        2.73364
              H 30 -- H 42                   0.03        2.73364
              H 1  -- H 18                   0.03        2.73364
              H 24 -- H 36                   0.03        2.73364
              H 10 -- H 14                   0.02        2.74561
              H 20 -- H 28                   0.02        2.74561
              H 22 -- H 26                   0.02        2.74561
              H 3  -- H 44                   0.02        2.74561
              H 8  -- H 16                   0.02        2.74561
              H 5  -- H 46                   0.02        2.74561
              H 34 -- H 38                   0.02        2.74561
              H 32 -- H 40                   0.02        2.74561
              H 34 -- H 43                   0.04        2.75921
              H 16 -- H 25                   0.04        2.75921
              H 31 -- H 46                   0.04        2.75921
              H 7  -- H 22                   0.04        2.75921
              H 3  -- H 37                   0.04        2.75921
              H 10 -- H 19                   0.04        2.75921
              H 13 -- H 28                   0.04        2.75921
              H 6  -- H 40                   0.04        2.75921
              H 28 -- H 48                   0.01        2.76482
              H 12 -- H 40                   0.01        2.76482
              H 18 -- H 34                   0.01        2.76482
              H 10 -- H 42                   0.01        2.76482
              H 30 -- H 46                   0.01        2.76482
              H 16 -- H 36                   0.01        2.76482
              H 1  -- H 22                   0.01        2.76482
              H 3  -- H 24                   0.01        2.76482
              H 29 -- H 41                   0.05        2.77330
              H 23 -- H 35                   0.05        2.77330
              H 11 -- H 47                   0.05        2.77330
              H 2  -- H 17                   0.05        2.77330
              H 32 -- H 45                   0.02        2.78031
              H 14 -- H 27                   0.02        2.78031
              H 9  -- H 20                   0.02        2.78031
              H 5  -- H 39                   0.02        2.78031
              H 33 -- H 44                   0.02        2.78031
              H 15 -- H 26                   0.02        2.78031
              H 8  -- H 21                   0.02        2.78031
              H 4  -- H 38                   0.02        2.78031
              H 13 -- H 44                   0.01        2.78277
              H 6  -- H 8                    0.01        2.78277
              H 5  -- H 7                    0.01        2.78277
              H 25 -- H 32                   0.01        2.78277
              H 14 -- H 43                   0.01        2.78277
              H 20 -- H 37                   0.01        2.78277
              H 19 -- H 38                   0.01        2.78277
              H 26 -- H 31                   0.01        2.78277
              H 28 -- H 40                   0.05        2.78333
              H 22 -- H 34                   0.05        2.78333
              H 3  -- H 16                   0.05        2.78333
              H 10 -- H 46                   0.05        2.78333
              H 24 -- H 43                   0.04        2.79151
              H 18 -- H 37                   0.04        2.79151
              H 7  -- H 36                   0.04        2.79151
              H 6  -- H 30                   0.04        2.79151
              H 12 -- H 31                   0.04        2.79151
              H 1  -- H 25                   0.04        2.79151
              H 19 -- H 48                   0.04        2.79151
              H 13 -- H 42                   0.04        2.79151
              H 20 -- H 42                   0.02        2.79562
              H 14 -- H 48                   0.02        2.79562
              H 26 -- H 36                   0.02        2.79562
              H 1  -- H 8                    0.02        2.79562
              H 18 -- H 44                   0.02        2.79562
              H 24 -- H 38                   0.02        2.79562
              H 30 -- H 32                   0.02        2.79562
              H 5  -- H 12                   0.02        2.79562
              H 23 -- H 39                   0.04        2.79593
              H 17 -- H 45                   0.04        2.79593
              H 4  -- H 11                   0.04        2.79593
              H 29 -- H 33                   0.04        2.79593
              H 27 -- H 35                   0.04        2.79593
              H 2  -- H 9                    0.04        2.79593
              H 15 -- H 47                   0.04        2.79593
              H 21 -- H 41                   0.04        2.79593
              H 22 -- H 41                  -0.00        2.79782
              H 29 -- H 34                  -0.00        2.79782
              H 16 -- H 47                  -0.00        2.79782
              H 3  -- H 11                  -0.00        2.79782
              H 28 -- H 35                  -0.00        2.79782
              H 23 -- H 40                  -0.00        2.79782
              H 17 -- H 46                  -0.00        2.79782
              H 2  -- H 10                  -0.00        2.79782
              H 6  -- H 45                   0.02        2.81178
              H 9  -- H 13                   0.02        2.81178
              H 31 -- H 39                   0.02        2.81178
              H 4  -- H 43                   0.02        2.81178
              H 33 -- H 37                   0.02        2.81178
              H 19 -- H 27                   0.02        2.81178
              H 7  -- H 15                   0.02        2.81178
              H 21 -- H 25                   0.02        2.81178
              H 10 -- H 13                   0.05        2.84026
              H 6  -- H 46                   0.05        2.84026
              H 22 -- H 25                   0.05        2.84026
              H 31 -- H 40                   0.05        2.84026
              H 34 -- H 37                   0.05        2.84026
              H 19 -- H 28                   0.05        2.84026
              H 3  -- H 43                   0.05        2.84026
              H 7  -- H 16                   0.05        2.84026
              H 26 -- H 35                   0.03        2.84640
              H 23 -- H 38                   0.03        2.84640
              H 17 -- H 44                   0.03        2.84640
              H 2  -- H 8                    0.03        2.84640
              H 29 -- H 32                   0.03        2.84640
              H 5  -- H 11                   0.03        2.84640
              H 20 -- H 41                   0.03        2.84640
              H 14 -- H 47                   0.03        2.84640
              H 6  -- H 25                   0.02        2.84742
              H 13 -- H 37                   0.02        2.84742
              H 7  -- H 31                   0.02        2.84742
              H 19 -- H 43                   0.02        2.84742
              H 9  -- H 15                   0.03        2.85136
              H 21 -- H 27                   0.03        2.85136
              H 4  -- H 45                   0.03        2.85136
              H 33 -- H 39                   0.03        2.85136
              H 8  -- H 14                   0.01        2.85721
              H 20 -- H 26                   0.01        2.85721
              H 5  -- H 44                   0.01        2.85721
              H 32 -- H 38                   0.01        2.85721
              H 35 -- H 41                   0.02        2.86376
              H 23 -- H 29                   0.02        2.86376
              H 11 -- H 17                   0.02        2.86376
              H 2  -- H 47                   0.02        2.86376
              H 14 -- H 42                   0.04        2.87915
              H 20 -- H 48                   0.04        2.87915
              H 8  -- H 36                   0.04        2.87915
              H 1  -- H 26                   0.04        2.87915
              H 5  -- H 30                   0.04        2.87915
              H 12 -- H 32                   0.04        2.87915
              H 24 -- H 44                   0.04        2.87915
              H 18 -- H 38                   0.04        2.87915
              H 24 -- H 42                   0.00        2.90526
              H 18 -- H 48                   0.00        2.90526
              H 30 -- H 36                   0.00        2.90526
              H 1  -- H 12                   0.00        2.90526
======================================================================


Writing analysis data to Pbcn.castep_bin

Writing model to Pbcn.check
 
 A BibTeX formatted list of references used in this run has been written to 
 Pbcn.bib
 
Initialisation time =      5.54 s
Calculation time    =   6053.11 s
Finalisation time   =     18.65 s
Total time          =   6077.30 s
Peak Memory Use     = 793400 kB
  
Overall parallel efficiency rating: Excellent (97%)                             
  
Data was distributed by:-
k-point (32-way); efficiency rating: Excellent (97%)                            
