 +-------------------------------------------------+
 |                                                 |
 |      CCC   AA    SSS  TTTTT  EEEEE  PPPP        |
 |     C     A  A  S       T    E      P   P       |
 |     C     AAAA   SS     T    EEE    PPPP        |
 |     C     A  A     S    T    E      P           |
 |      CCC  A  A  SSS     T    EEEEE  P           |
 |                                                 |
 +-------------------------------------------------+
 |                                                 |
 | Welcome to Academic Release CASTEP version 18.1 |          
 | Ab Initio Total Energy Program                  |
 |                                                 |
 | Authors:                                        |
 | M. Segall, M. Probert, C. Pickard, P. Hasnip,   |
 | S. Clark, K. Refson, J. R. Yates, M. Payne      |
 |                                                 |
 | Contributors:                                   |
 | P. Lindan, P. Haynes, J. White, V. Milman,      |
 | N. Govind, M. Gibson, P. Tulip, V. Cocula,      |
 | B. Montanari, D. Quigley, M. Glover,            |
 | L. Bernasconi, A. Perlov, M. Plummer,           |
 | E. McNellis, J. Meyer, J. Gale, D. Jochym       |
 | J. Aarons, B. Walker, R. Gillen, D. Jones       |
 | T. Green, I. J. Bush, C. J. Armstrong,          |
 | E. J. Higgins, E. L. Brown, M. S. McFly,        |
 | J. Wilkins, B-C. Shih, P. J. P. Byrne           |
 |                                                 |
 | Copyright (c) 2000 - 2017                       |
 |                                                 |
 |     Distributed under the terms of an           |
 |     Agreement between the United Kingdom        |
 |     Car-Parrinello (UKCP) Consortium,           |
 |     Daresbury Laboratory and Accelrys, Inc.     |
 |                                                 |
 | Please cite                                     |
 |                                                 |
 |     "First principles methods using CASTEP"     |
 |                                                 |
 |         Zeitschrift fuer Kristallographie       |
 |           220(5-6) pp. 567-570 (2005)           |
 |                                                 |
 | S. J. Clark, M. D. Segall, C. J. Pickard,       |
 | P. J. Hasnip, M. J. Probert, K. Refson,         |
 | M. C. Payne                                     |
 |                                                 |
 |       in all publications arising from          |
 |              your use of CASTEP                 |
 |                                                 |
 +-------------------------------------------------+


 Compiled for linux_x86_64_gfortran4.8 on Thu, 19 Jul 2018 15:42:32 +0100
 from code version 70483bd0ad64+  Sun, 10 Dec 2017 12:18:29 +0000
 Compiler: GNU Fortran 4.8.5; Optimisation: fast
 MATHLIBS: Intel MKL(2018.0.0) (LAPACK version 3.7.0)
 FFT Lib : mkl
 Fundamental constants values: CODATA 2014

 Run started: Thu, 27 Aug 2020 18:21:25 +0100

 Atomic calculation performed for H: 1s1

 Converged in 41 iterations to an ae energy of -12.488 eV

   ============================================================                
   | Pseudopotential Report - Date of generation 27-08-2020   |                
   ------------------------------------------------------------                
   | Element: H Ionic charge:  1.00 Level of theory: PBE      |                
   | Atomic Solver: Koelling-Harmon                           |                
   |                                                          |                
   |               Reference Electronic Structure             |                
   |         Orbital         Occupation         Energy        |                
   |            1s              1.000           -0.239        |                
   |                                                          |                
   |                 Pseudopotential Definition               |                
   |        Beta     l      e      Rc     scheme   norm       |                
   |         loc     0   -0.239   0.702     qc      1         |                
   |                                                          |                
   | No charge augmentation                                   |                
   | No partial core correction                               |                
   ------------------------------------------------------------                
   | "0|0.7|2|6|8|10L(qc=10)"                                 |                
   ------------------------------------------------------------                
   |      Author: Chris J. Pickard, Cambridge University      |                
   ============================================================                

 Pseudo atomic calculation performed for H 1s1

 Converged in 24 iterations to a total energy of -12.4855 eV

 Calculation parallelised over 32 processes.
 Data is distributed by k-point(32-way)

 ************************************ Title ************************************
 

 ***************************** General Parameters ******************************
  
 output verbosity                               : normal  (1)
 write checkpoint data to                       : Pbcn.check
 type of calculation                            : geometry optimization
 stress calculation                             : on
 density difference calculation                 : off
 electron localisation func (ELF) calculation   : off
 Hirshfeld analysis                             : off
 unlimited duration calculation
 timing information                             : on
 memory usage estimate                          : on
 write extra output files                       : on
 write final potential to formatted file        : off
 write final density to formatted file          : off
 write structure in CELL formatted file         : on
 write BibTeX reference list                    : on
 write OTFG pseudopotential files               : on
 write electrostatic potential file             : on
 write bands file                               : on
 checkpoint writing                             : both castep_bin and check files
  
 output         length unit                     : A
 output           mass unit                     : amu
 output           time unit                     : ps
 output         charge unit                     : e
 output           spin unit                     : hbar/2
 output         energy unit                     : eV
 output          force unit                     : eV/A
 output       velocity unit                     : A/ps
 output       pressure unit                     : GPa
 output     inv_length unit                     : 1/A
 output      frequency unit                     : cm-1
 output force constant unit                     : eV/A**2
 output         volume unit                     : A**3
 output   IR intensity unit                     : (D/A)**2/amu
 output         dipole unit                     : D
 output         efield unit                     : eV/A/e
 output        entropy unit                     : J/mol/K
  
 wavefunctions paging                           : none
 random number generator seed                   : randomised (182125424)
 data distribution                              : optimal for this architecture
 optimization strategy                          : maximize speed(+++)

 *********************** Exchange-Correlation Parameters ***********************
  
 using functional                               : Perdew Burke Ernzerhof
 relativistic treatment                         : Koelling-Harmon
 DFT+D: Semi-empirical dispersion correction    : off

 ************************* Pseudopotential Parameters **************************
  
 pseudopotential representation                 : reciprocal space
 <beta|phi> representation                      : reciprocal space
 spin-orbit coupling                            : off

 **************************** Basis Set Parameters *****************************
  
 plane wave basis set cut-off                   :  1600.0000   eV
 size of standard grid                          :     2.0000
 size of   fine   gmax                          :    40.9853   1/A
 finite basis set correction                    : automatic
 number of sample energies                      :          3
           sample  spacing                      :     5.0000   eV

 **************************** Electronic Parameters ****************************
  
 number of  electrons                           :  48.00    
 net charge of system                           :  0.000    
 treating system as non-spin-polarized
 number of bands                                :         24

 ********************* Electronic Minimization Parameters **********************
  
 Method: Treating system as non-metallic,
         and number of  SD  steps               :          1
         and number of  CG  steps               :          4
  
 total energy / atom convergence tol.           : 0.1000E-10   eV
 eigen-energy convergence tolerance             : 0.2000E-10   eV
 max force / atom convergence tol.              : ignored
 convergence tolerance window                   :          3   cycles
 max. number of SCF cycles                      :        100
 periodic dipole correction                     : NONE

 ************************** Density Mixing Parameters **************************
  
 density-mixing scheme                          : Broyden
 max. length of mixing history                  :         20
 charge density mixing amplitude                : 0.8000    
 cut-off energy for mixing                      :  1600.       eV

 *********************** Population Analysis Parameters ************************
  
 Population analysis with cutoff                :  3.000       A
 Population analysis output                     : summary and pdos components

 ********************** Geometry Optimization Parameters ***********************
  
 optimization method                            : LBFGS
 max. no. of LBFGS updates                      : unbounded
 variable cell method                           : fixed basis quality
 max. number of steps                           :        100
 estimated bulk modulus                         :  500.0       GPa
 estimated <frequency>                          :  1668.       cm-1
 geom line minimiser                            : on
 with line minimiser tolerance                  :     0.4000
 total energy convergence tolerance             : 0.1000E-08   eV/atom
        max ionic |force| tolerance             : 0.1000E-04   eV/A
 max ionic |displacement| tolerance             : 0.1000E-04   A
   max |stress component| tolerance             : 0.1000E-04   GPa
 convergence tolerance window                   :          2   steps
 backup results every                           :      14400   seconds
 write geom trajectory file                     : on

 *******************************************************************************
  

                           -------------------------------
                                      Unit Cell
                           -------------------------------
        Real Lattice(A)                      Reciprocal Lattice(1/A)
     2.8655361     0.0000000     0.0000000        2.192673569  -0.000000000   0.000000000
     0.0000000     4.9873677     0.0000000       -0.000000000   1.259819952   0.000000000
     0.0000000     0.0000000     5.1265507        0.000000000   0.000000000   1.225616539

                       Lattice parameters(A)       Cell Angles
                    a =      2.865536          alpha =   90.000000
                    b =      4.987368          beta  =   90.000000
                    c =      5.126551          gamma =   90.000000

                       Current cell volume =            73.266008       A**3
                                   density =             0.660349   AMU/A**3
                                           =             1.096535     g/cm^3

                           -------------------------------
                                     Cell Contents
                           -------------------------------
                         Total number of ions in cell =   48
                      Total number of species in cell =    1
                        Max number of any one species =   48

            xxxxxxxxxxxxxxxxxxxxxxxxxxxxxxxxxxxxxxxxxxxxxxxxxxxxxxxxxxxx
            x  Element    Atom        Fractional coordinates of atoms  x
            x            Number           u          v          w      x
            x----------------------------------------------------------x
            x  H            1         0.403403   0.114030   0.011077   x 
            x  H            2         0.583858   0.214540   0.019049   x 
            x  H            3         0.581161   0.554829   0.003569   x 
            x  H            4         0.143415   0.171748   0.249256   x 
            x  H            5         0.314436   0.343536   0.245744   x 
            x  H            6         0.171481   0.486051   0.250663   x 
            x  H            7         0.171481   0.513949   0.750663   x 
            x  H            8         0.314436   0.656464   0.745744   x 
            x  H            9         0.143415   0.828252   0.749256   x 
            x  H           10         0.581161   0.445171   0.503569   x 
            x  H           11         0.583858   0.785460   0.519049   x 
            x  H           12         0.403403   0.885970   0.511077   x 
            x  H           13         0.328519   0.986051   0.250663   x 
            x  H           14         0.185564   0.843536   0.245744   x 
            x  H           15         0.356585   0.671748   0.249256   x 
            x  H           16        -0.081161   0.054829   0.003569   x 
            x  H           17        -0.083858   0.714540   0.019049   x 
            x  H           18         0.096597   0.614030   0.011077   x 
            x  H           19         0.671481   0.986051   0.249337   x 
            x  H           20         0.814436   0.843536   0.254256   x 
            x  H           21         0.643415   0.671748   0.250744   x 
            x  H           22         1.081161   0.054829   0.496431   x 
            x  H           23         1.083858   0.714540   0.480951   x 
            x  H           24         0.903403   0.614030   0.488923   x 
            x  H           25         0.828519   0.513949   0.749337   x 
            x  H           26         0.685564   0.656464   0.754256   x 
            x  H           27         0.856585   0.828252   0.750744   x 
            x  H           28         0.418839   0.445171  -0.003569   x 
            x  H           29         0.416142   0.785460   0.980951   x 
            x  H           30         0.596597   0.885970   0.988923   x 
            x  H           31         0.828519   0.486051   0.249337   x 
            x  H           32         0.685564   0.343536   0.254256   x 
            x  H           33         0.856585   0.171748   0.250744   x 
            x  H           34         0.418839   0.554829   0.496431   x 
            x  H           35         0.416142   0.214540   0.480951   x 
            x  H           36         0.596597   0.114030   0.488923   x 
            x  H           37         0.671481   0.013949   0.749337   x 
            x  H           38         0.814436   0.156464   0.754256   x 
            x  H           39         0.643415   0.328252   0.750744   x 
            x  H           40         0.081161  -0.054829  -0.003569   x 
            x  H           41         1.083858   0.285460   0.980951   x 
            x  H           42         0.903403   0.385970   0.988923   x 
            x  H           43         0.328519   0.013949   0.750663   x 
            x  H           44         0.185564   0.156464   0.745744   x 
            x  H           45         0.356585   0.328252   0.749256   x 
            x  H           46         0.918839  -0.054829   0.503569   x 
            x  H           47        -0.083858   0.285460   0.519049   x 
            x  H           48         0.096597   0.385970   0.511077   x 
            xxxxxxxxxxxxxxxxxxxxxxxxxxxxxxxxxxxxxxxxxxxxxxxxxxxxxxxxxxxx


                         No user defined ionic velocities

                           -------------------------------
                                   Details of Species
                           -------------------------------

                               Mass of species in AMU
                                    H    1.0078250

                          Electric Quadrupole Moment (Barn)
                                    H    0.0028600 Isotope  2

                          Files used for pseudopotentials:
                                    H 0|0.7|2|6|8|10L(qc=10)

                           -------------------------------
                              k-Points For BZ Sampling
                           -------------------------------
                       MP grid size for SCF calculation is 12 12 12
                            with an offset of   0.000  0.000  0.000
                       Number of kpoints used =           216

                           -------------------------------
                               Symmetry and Constraints
                           -------------------------------

                      Maximum deviation from symmetry = 0.996676E-14     ANG

                      Number of symmetry operations   =           8
                      Number of ionic constraints     =           3
                      Point group of crystal =     8: D2h, mmm, 2/m 2/m 2/m
                      Space group of crystal =    60: Pbcn, -P 2n 2ab

             Set iprint > 1 for details on symmetry rotations/translations

                         Centre of mass is constrained
             Set iprint > 1 for details of linear ionic constraints

                         Number of cell constraints= 3
                         Cell constraints are:  1 2 3 0 0 0

                         External pressure/stress (GPa)
                        240.00000   0.00000   0.00000
                                  240.00000   0.00000
                                            240.00000
  
+---------------- MEMORY AND SCRATCH DISK ESTIMATES PER PROCESS --------------+
|                                                     Memory          Disk    |
| Baseline code, static data and system overhead      479.0 MB         0.0 MB |
| BLAS internal memory storage                          0.0 MB         0.0 MB |
| Model and support data                               93.0 MB         0.0 MB |
| Electronic energy minimisation requirements         113.1 MB         0.0 MB |
| Force calculation requirements                       23.7 MB         0.0 MB |
| Stress calculation requirements                      30.1 MB         0.0 MB |
|                                               ----------------------------- |
| Approx. total storage required per process          685.0 MB         0.0 MB |
|                                                                             |
| Requirements will fluctuate during execution and may exceed these estimates |
+-----------------------------------------------------------------------------+
Calculating finite basis set correction with  3 cut-off energies.
Calculating total energy with cut-off of 1590.000 eV.
------------------------------------------------------------------------ <-- SCF
SCF loop      Energy                           Energy gain       Timer   <-- SCF
                                               per atom          (sec)   <-- SCF
------------------------------------------------------------------------ <-- SCF
Initial   1.07039672E+003                                         12.27  <-- SCF
      1  -5.78420411E+002                    3.43503568E+001      28.11  <-- SCF
      2  -6.86780994E+002                    2.25751213E+000      39.26  <-- SCF
      3  -6.87817376E+002                    2.15913063E-002      55.71  <-- SCF
      4  -6.87803858E+002                   -2.81626330E-004      72.19  <-- SCF
      5  -6.87804530E+002                    1.39834059E-005      88.57  <-- SCF
      6  -6.87804581E+002                    1.06363341E-006     104.99  <-- SCF
      7  -6.87804581E+002                    1.59375841E-008     121.41  <-- SCF
      8  -6.87804581E+002                    5.85358636E-010     137.81  <-- SCF
      9  -6.87804581E+002                    1.58142982E-011     149.97  <-- SCF
     10  -6.87804581E+002                    2.19531140E-013     161.66  <-- SCF
     11  -6.87804581E+002                    1.26884971E-013     173.21  <-- SCF
------------------------------------------------------------------------ <-- SCF
 
Final energy =  -687.8045814407     eV
(energy not corrected for finite basis set)
 
Calculating total energy with cut-off of 1595.000 eV.
------------------------------------------------------------------------ <-- SCF
SCF loop      Energy                           Energy gain       Timer   <-- SCF
                                               per atom          (sec)   <-- SCF
------------------------------------------------------------------------ <-- SCF
Initial  -6.87804581E+002                                        179.69  <-- SCF
      1  -6.87804714E+002                    2.76445047E-006     192.49  <-- SCF
      2  -6.87804714E+002                    2.05030000E-012     204.00  <-- SCF
      3  -6.87804714E+002                    5.20020933E-010     215.58  <-- SCF
      4  -6.87804714E+002                    2.84705706E-011     227.26  <-- SCF
      5  -6.87804714E+002                    1.17016140E-012     238.86  <-- SCF
      6  -6.87804714E+002                   -1.14800688E-013     250.52  <-- SCF
------------------------------------------------------------------------ <-- SCF
 
Final energy =  -687.8047141609     eV
(energy not corrected for finite basis set)
 
Calculating total energy with cut-off of 1600.000 eV.
------------------------------------------------------------------------ <-- SCF
SCF loop      Energy                           Energy gain       Timer   <-- SCF
                                               per atom          (sec)   <-- SCF
------------------------------------------------------------------------ <-- SCF
Initial  -6.87804714E+002                                        256.99  <-- SCF
      1  -6.87804839E+002                    2.59718373E-006     269.92  <-- SCF
      2  -6.87804839E+002                    1.94758360E-012     281.51  <-- SCF
      3  -6.87804839E+002                    4.78600039E-010     293.09  <-- SCF
      4  -6.87804839E+002                    2.56468764E-011     304.73  <-- SCF
      5  -6.87804839E+002                    1.50046513E-012     316.32  <-- SCF
      6  -6.87804839E+002                   -1.81264244E-013     327.94  <-- SCF
------------------------------------------------------------------------ <-- SCF
 
Final energy =  -687.8048388501     eV
(energy not corrected for finite basis set)
 
 For future reference: finite basis dEtot/dlog(Ecut) =      -0.041119eV
 Total energy corrected for finite basis set =    -687.804839 eV
 
+---------------- MEMORY AND SCRATCH DISK ESTIMATES PER PROCESS --------------+
|                                                     Memory          Disk    |
| Model and support data                               94.5 MB         0.0 MB |
| Electronic energy minimisation requirements         113.1 MB         0.0 MB |
| Geometry minimisation requirements                  144.1 MB         0.0 MB |
|                                               ----------------------------- |
| Approx. total storage required per process          351.7 MB         0.0 MB |
|                                                                             |
| Requirements will fluctuate during execution and may exceed these estimates |
+-----------------------------------------------------------------------------+
 

 ******************************** Symmetrised Forces ********************************
 *                                                                                  *
 *                           Cartesian components (eV/A)                            *
 * -------------------------------------------------------------------------------- *
 *                         x                    y                    z              *
 *                                                                                  *
 * H               1      0.00000             -0.00000             -0.00000         *
 * H               2     -0.00000              0.00000             -0.00000         *
 * H               3     -0.00000              0.00000             -0.00000         *
 * H               4     -0.00000             -0.00000             -0.00000         *
 * H               5     -0.00000             -0.00000             -0.00000         *
 * H               6      0.00000             -0.00000             -0.00000         *
 * H               7      0.00000              0.00000             -0.00000         *
 * H               8     -0.00000              0.00000             -0.00000         *
 * H               9     -0.00000              0.00000             -0.00000         *
 * H              10     -0.00000             -0.00000             -0.00000         *
 * H              11     -0.00000             -0.00000             -0.00000         *
 * H              12      0.00000              0.00000             -0.00000         *
 * H              13     -0.00000             -0.00000             -0.00000         *
 * H              14      0.00000             -0.00000             -0.00000         *
 * H              15      0.00000             -0.00000             -0.00000         *
 * H              16      0.00000              0.00000             -0.00000         *
 * H              17      0.00000              0.00000             -0.00000         *
 * H              18     -0.00000             -0.00000             -0.00000         *
 * H              19      0.00000             -0.00000              0.00000         *
 * H              20     -0.00000             -0.00000              0.00000         *
 * H              21     -0.00000             -0.00000              0.00000         *
 * H              22     -0.00000              0.00000              0.00000         *
 * H              23     -0.00000              0.00000              0.00000         *
 * H              24      0.00000             -0.00000              0.00000         *
 * H              25     -0.00000              0.00000              0.00000         *
 * H              26      0.00000              0.00000              0.00000         *
 * H              27      0.00000              0.00000              0.00000         *
 * H              28      0.00000             -0.00000              0.00000         *
 * H              29      0.00000             -0.00000              0.00000         *
 * H              30     -0.00000              0.00000              0.00000         *
 * H              31     -0.00000             -0.00000              0.00000         *
 * H              32      0.00000             -0.00000              0.00000         *
 * H              33      0.00000             -0.00000              0.00000         *
 * H              34      0.00000              0.00000              0.00000         *
 * H              35      0.00000              0.00000              0.00000         *
 * H              36     -0.00000             -0.00000              0.00000         *
 * H              37      0.00000              0.00000              0.00000         *
 * H              38     -0.00000              0.00000              0.00000         *
 * H              39     -0.00000              0.00000              0.00000         *
 * H              40     -0.00000             -0.00000              0.00000         *
 * H              41     -0.00000             -0.00000              0.00000         *
 * H              42      0.00000              0.00000              0.00000         *
 * H              43     -0.00000              0.00000             -0.00000         *
 * H              44      0.00000              0.00000             -0.00000         *
 * H              45      0.00000              0.00000             -0.00000         *
 * H              46      0.00000             -0.00000             -0.00000         *
 * H              47      0.00000             -0.00000             -0.00000         *
 * H              48     -0.00000              0.00000             -0.00000         *
 *                                                                                  *
 ************************************************************************************

 *********** Symmetrised Stress Tensor ***********
 *                                               *
 *          Cartesian components (GPa)           *
 * --------------------------------------------- *
 *             x             y             z     *
 *                                               *
 *  x   -269.996940      0.000000      0.000000  *
 *  y      0.000000   -269.996935      0.000000  *
 *  z      0.000000      0.000000   -269.996943  *
 *                                               *
 *  Pressure:  269.9969                          *
 *                                               *
 *************************************************
 LBFGS: finished iteration     0 with enthalpy= -5.78055129E+002 eV
  
 +-----------+-----------------+-----------------+------------+-----+ <-- LBFGS
 | Parameter |      value      |    tolerance    |    units   | OK? | <-- LBFGS
 +-----------+-----------------+-----------------+------------+-----+ <-- LBFGS
 |  dE/ion   |   0.000000E+000 |   1.000000E-009 |         eV | No  | <-- LBFGS
 |  |F|max   |   1.655172E-006 |   1.000000E-005 |       eV/A | Yes | <-- LBFGS
 |  |dR|max  |   0.000000E+000 |   1.000000E-005 |          A | No  | <-- LBFGS
 |   Smax    |   2.999694E+001 |   1.000000E-005 |        GPa | No  | <-- LBFGS
 +-----------+-----------------+-----------------+------------+-----+ <-- LBFGS
  

================================================================================
 Starting LBFGS iteration          1 ...
================================================================================
  
 +------------+-------------+-------------+-----------------+ <-- min LBFGS
 |    Step    |   lambda    |   F.delta'  |    enthalpy     | <-- min LBFGS
 +------------+-------------+-------------+-----------------+ <-- min LBFGS
 |  previous  |    0.000000 |    0.873130 |     -578.055129 | <-- min LBFGS
 +------------+-------------+-------------+-----------------+ <-- min LBFGS
  

--------------------------------------------------------------------------------
 LBFGS: starting iteration         1 with trial guess (lambda=  1.000000)
--------------------------------------------------------------------------------
 
+---------------- MEMORY AND SCRATCH DISK ESTIMATES PER PROCESS --------------+
|                                                     Memory          Disk    |
| Model and support data                               96.8 MB         0.0 MB |
| Electronic energy minimisation requirements         118.8 MB         0.0 MB |
| Geometry minimisation requirements                  151.5 MB         0.0 MB |
|                                               ----------------------------- |
| Approx. total storage required per process          367.2 MB         0.0 MB |
|                                                                             |
| Requirements will fluctuate during execution and may exceed these estimates |
+-----------------------------------------------------------------------------+
 

                           -------------------------------
                                      Unit Cell
                           -------------------------------
        Real Lattice(A)              Reciprocal Lattice(1/A)
     2.9228410    -0.0000000     0.0000000        2.149684270   0.000000000   0.000000000
    -0.0000000     5.0871048     0.0000000        0.000000000   1.235120074   0.000000000
     0.0000000     0.0000000     5.2290712        0.000000000   0.000000000   1.201587243

                       Lattice parameters(A)       Cell Angles
                    a =      2.922841          alpha =   90.000000
                    b =      5.087105          beta  =   90.000000
                    c =      5.229071          gamma =   90.000000

                Current cell volume =            77.750007 A**3

                           -------------------------------
                                     Cell Contents
                           -------------------------------

            xxxxxxxxxxxxxxxxxxxxxxxxxxxxxxxxxxxxxxxxxxxxxxxxxxxxxxxxxxxxxxxxx
            x  Element         Atom        Fractional coordinates of atoms  x
            x                 Number           u          v          w      x
            x---------------------------------------------------------------x
            x  H                 1         0.403403   0.114030   0.011077   x
            x  H                 2         0.583858   0.214540   0.019049   x
            x  H                 3         0.581161   0.554829   0.003569   x
            x  H                 4         0.143415   0.171748   0.249256   x
            x  H                 5         0.314436   0.343535   0.245744   x
            x  H                 6         0.171481   0.486051   0.250663   x
            x  H                 7         0.171481   0.513949   0.750663   x
            x  H                 8         0.314436   0.656465   0.745744   x
            x  H                 9         0.143415   0.828252   0.749256   x
            x  H                10         0.581161   0.445171   0.503569   x
            x  H                11         0.583858   0.785460   0.519049   x
            x  H                12         0.403403   0.885970   0.511077   x
            x  H                13         0.328519   0.986051   0.250663   x
            x  H                14         0.185564   0.843535   0.245744   x
            x  H                15         0.356585   0.671748   0.249256   x
            x  H                16        -0.081161   0.054829   0.003569   x
            x  H                17        -0.083858   0.714540   0.019049   x
            x  H                18         0.096597   0.614030   0.011077   x
            x  H                19         0.671481   0.986051   0.249337   x
            x  H                20         0.814436   0.843535   0.254256   x
            x  H                21         0.643415   0.671748   0.250744   x
            x  H                22         1.081161   0.054829   0.496431   x
            x  H                23         1.083858   0.714540   0.480951   x
            x  H                24         0.903403   0.614030   0.488923   x
            x  H                25         0.828519   0.513949   0.749337   x
            x  H                26         0.685564   0.656465   0.754256   x
            x  H                27         0.856585   0.828252   0.750744   x
            x  H                28         0.418839   0.445171  -0.003569   x
            x  H                29         0.416142   0.785460   0.980951   x
            x  H                30         0.596597   0.885970   0.988923   x
            x  H                31         0.828519   0.486051   0.249337   x
            x  H                32         0.685564   0.343535   0.254256   x
            x  H                33         0.856585   0.171748   0.250744   x
            x  H                34         0.418839   0.554829   0.496431   x
            x  H                35         0.416142   0.214540   0.480951   x
            x  H                36         0.596597   0.114030   0.488923   x
            x  H                37         0.671481   0.013949   0.749337   x
            x  H                38         0.814436   0.156465   0.754256   x
            x  H                39         0.643415   0.328252   0.750744   x
            x  H                40         0.081161  -0.054829  -0.003569   x
            x  H                41         1.083858   0.285460   0.980951   x
            x  H                42         0.903403   0.385970   0.988923   x
            x  H                43         0.328519   0.013949   0.750663   x
            x  H                44         0.185564   0.156465   0.745744   x
            x  H                45         0.356585   0.328252   0.749256   x
            x  H                46         0.918839  -0.054829   0.503569   x
            x  H                47        -0.083858   0.285460   0.519049   x
            x  H                48         0.096597   0.385970   0.511077   x
            xxxxxxxxxxxxxxxxxxxxxxxxxxxxxxxxxxxxxxxxxxxxxxxxxxxxxxxxxxxxxxxxx


------------------------------------------------------------------------ <-- SCF
SCF loop      Energy                           Energy gain       Timer   <-- SCF
                                               per atom          (sec)   <-- SCF
------------------------------------------------------------------------ <-- SCF
Initial  -6.94653538E+002                                        345.47  <-- SCF
      1  -6.94772824E+002                    2.48511302E-003     358.62  <-- SCF
      2  -6.94773381E+002                    1.16007921E-005     375.59  <-- SCF
      3  -6.94772942E+002                   -9.13791101E-006     392.06  <-- SCF
      4  -6.94772972E+002                    6.22198787E-007     408.75  <-- SCF
      5  -6.94772973E+002                    2.04341055E-008     425.10  <-- SCF
      6  -6.94772973E+002                    2.06064012E-009     441.65  <-- SCF
      7  -6.94772973E+002                    1.18667658E-011     453.31  <-- SCF
      8  -6.94772973E+002                    5.78031533E-013     464.95  <-- SCF
      9  -6.94772973E+002                    5.63933203E-014     476.71  <-- SCF
------------------------------------------------------------------------ <-- SCF
 
Final energy =  -694.7729729029     eV
(energy not corrected for finite basis set)
 

 ******************************** Symmetrised Forces ********************************
 *                                                                                  *
 *                           Cartesian components (eV/A)                            *
 * -------------------------------------------------------------------------------- *
 *                         x                    y                    z              *
 *                                                                                  *
 * H               1      0.25821              0.25373              0.01619         *
 * H               2     -0.26083             -0.25273             -0.02565         *
 * H               3     -0.23798             -0.28143             -0.01999         *
 * H               4     -0.18228              0.03150              0.00282         *
 * H               5     -0.11773              0.14180              0.01158         *
 * H               6      0.06099             -0.17425             -0.00834         *
 * H               7      0.06099              0.17425             -0.00834         *
 * H               8     -0.11773             -0.14180              0.01158         *
 * H               9     -0.18228             -0.03150              0.00282         *
 * H              10     -0.23798              0.28143             -0.01999         *
 * H              11     -0.26083              0.25273             -0.02565         *
 * H              12      0.25821             -0.25373              0.01619         *
 * H              13     -0.06099             -0.17425             -0.00834         *
 * H              14      0.11773              0.14180              0.01158         *
 * H              15      0.18228              0.03150              0.00282         *
 * H              16      0.23798             -0.28143             -0.01999         *
 * H              17      0.26083             -0.25273             -0.02565         *
 * H              18     -0.25821              0.25373              0.01619         *
 * H              19      0.06099             -0.17425              0.00834         *
 * H              20     -0.11773              0.14180             -0.01158         *
 * H              21     -0.18228              0.03150             -0.00282         *
 * H              22     -0.23798             -0.28143              0.01999         *
 * H              23     -0.26083             -0.25273              0.02565         *
 * H              24      0.25821              0.25373             -0.01619         *
 * H              25     -0.06099              0.17425              0.00834         *
 * H              26      0.11773             -0.14180             -0.01158         *
 * H              27      0.18228             -0.03150             -0.00282         *
 * H              28      0.23798              0.28143              0.01999         *
 * H              29      0.26083              0.25273              0.02565         *
 * H              30     -0.25821             -0.25373             -0.01619         *
 * H              31     -0.06099             -0.17425              0.00834         *
 * H              32      0.11773              0.14180             -0.01158         *
 * H              33      0.18228              0.03150             -0.00282         *
 * H              34      0.23798             -0.28143              0.01999         *
 * H              35      0.26083             -0.25273              0.02565         *
 * H              36     -0.25821              0.25373             -0.01619         *
 * H              37      0.06099              0.17425              0.00834         *
 * H              38     -0.11773             -0.14180             -0.01158         *
 * H              39     -0.18228             -0.03150             -0.00282         *
 * H              40     -0.23798              0.28143              0.01999         *
 * H              41     -0.26083              0.25273              0.02565         *
 * H              42      0.25821             -0.25373             -0.01619         *
 * H              43     -0.06099              0.17425             -0.00834         *
 * H              44      0.11773             -0.14180              0.01158         *
 * H              45      0.18228             -0.03150              0.00282         *
 * H              46      0.23798              0.28143             -0.01999         *
 * H              47      0.26083              0.25273             -0.02565         *
 * H              48     -0.25821             -0.25373              0.01619         *
 *                                                                                  *
 ************************************************************************************

 *********** Symmetrised Stress Tensor ***********
 *                                               *
 *          Cartesian components (GPa)           *
 * --------------------------------------------- *
 *             x             y             z     *
 *                                               *
 *  x   -226.494760     -0.000000      0.000000  *
 *  y     -0.000000   -226.336353      0.000000  *
 *  z      0.000000      0.000000   -234.979575  *
 *                                               *
 *  Pressure:  229.2702                          *
 *                                               *
 *************************************************
  
 +------------+-------------+-------------+-----------------+ <-- min LBFGS
 |    Step    |   lambda    |   F.delta'  |    enthalpy     | <-- min LBFGS
 +------------+-------------+-------------+-----------------+ <-- min LBFGS
 |  previous  |    0.000000 |    0.873130 |     -578.055129 | <-- min LBFGS
 | trial step |    1.000000 |   -0.324931 |     -578.306402 | <-- min LBFGS
 +------------+-------------+-------------+-----------------+ <-- min LBFGS
  
 LBFGS: finished iteration     1 with enthalpy= -5.78306402E+002 eV
  
 +-----------+-----------------+-----------------+------------+-----+ <-- LBFGS
 | Parameter |      value      |    tolerance    |    units   | OK? | <-- LBFGS
 +-----------+-----------------+-----------------+------------+-----+ <-- LBFGS
 |  dE/ion   |   5.234850E-003 |   1.000000E-009 |         eV | No  | <-- LBFGS
 |  |F|max   |   3.691049E-001 |   1.000000E-005 |       eV/A | No  | <-- LBFGS
 |  |dR|max  |   1.637641E-007 |   1.000000E-005 |          A | Yes | <-- LBFGS
 |   Smax    |   1.366365E+001 |   1.000000E-005 |        GPa | No  | <-- LBFGS
 +-----------+-----------------+-----------------+------------+-----+ <-- LBFGS
  

================================================================================
 Starting LBFGS iteration          2 ...
================================================================================
  
 +------------+-------------+-------------+-----------------+ <-- min LBFGS
 |    Step    |   lambda    |   F.delta'  |    enthalpy     | <-- min LBFGS
 +------------+-------------+-------------+-----------------+ <-- min LBFGS
 |  previous  |    0.000000 |    0.275840 |     -578.306402 | <-- min LBFGS
 +------------+-------------+-------------+-----------------+ <-- min LBFGS
  

--------------------------------------------------------------------------------
 LBFGS: starting iteration         2 with trial guess (lambda=  1.000000)
--------------------------------------------------------------------------------

                           -------------------------------
                                      Unit Cell
                           -------------------------------
        Real Lattice(A)              Reciprocal Lattice(1/A)
     2.9188829    -0.0000000     0.0000000        2.152599318   0.000000000   0.000000000
    -0.0000000     5.0798165     0.0000000        0.000000000   1.236892173   0.000000000
     0.0000000     0.0000000     5.2439775        0.000000000   0.000000000   1.198171673

                       Lattice parameters(A)       Cell Angles
                    a =      2.918883          alpha =   90.000000
                    b =      5.079817          beta  =   90.000000
                    c =      5.243978          gamma =   90.000000

                Current cell volume =            77.754497 A**3

                           -------------------------------
                                     Cell Contents
                           -------------------------------

            xxxxxxxxxxxxxxxxxxxxxxxxxxxxxxxxxxxxxxxxxxxxxxxxxxxxxxxxxxxxxxxxx
            x  Element         Atom        Fractional coordinates of atoms  x
            x                 Number           u          v          w      x
            x---------------------------------------------------------------x
            x  H                 1         0.409900   0.117699   0.011305   x
            x  H                 2         0.577295   0.210887   0.018688   x
            x  H                 3         0.575172   0.550760   0.003288   x
            x  H                 4         0.138829   0.172203   0.249296   x
            x  H                 5         0.311474   0.345586   0.245907   x
            x  H                 6         0.173015   0.483531   0.250546   x
            x  H                 7         0.173015   0.516469   0.750546   x
            x  H                 8         0.311474   0.654414   0.745907   x
            x  H                 9         0.138829   0.827797   0.749296   x
            x  H                10         0.575172   0.449240   0.503288   x
            x  H                11         0.577295   0.789113   0.518688   x
            x  H                12         0.409900   0.882301   0.511305   x
            x  H                13         0.326985   0.983531   0.250546   x
            x  H                14         0.188526   0.845586   0.245907   x
            x  H                15         0.361171   0.672203   0.249296   x
            x  H                16        -0.075172   0.050760   0.003288   x
            x  H                17        -0.077295   0.710887   0.018688   x
            x  H                18         0.090100   0.617699   0.011305   x
            x  H                19         0.673015   0.983531   0.249454   x
            x  H                20         0.811474   0.845586   0.254093   x
            x  H                21         0.638829   0.672203   0.250704   x
            x  H                22         1.075172   0.050760   0.496712   x
            x  H                23         1.077295   0.710887   0.481312   x
            x  H                24         0.909900   0.617699   0.488695   x
            x  H                25         0.826985   0.516469   0.749454   x
            x  H                26         0.688526   0.654414   0.754093   x
            x  H                27         0.861171   0.827797   0.750704   x
            x  H                28         0.424828   0.449240  -0.003288   x
            x  H                29         0.422705   0.789113   0.981312   x
            x  H                30         0.590100   0.882301   0.988695   x
            x  H                31         0.826985   0.483531   0.249454   x
            x  H                32         0.688526   0.345586   0.254093   x
            x  H                33         0.861171   0.172203   0.250704   x
            x  H                34         0.424828   0.550760   0.496712   x
            x  H                35         0.422705   0.210887   0.481312   x
            x  H                36         0.590100   0.117699   0.488695   x
            x  H                37         0.673015   0.016469   0.749454   x
            x  H                38         0.811474   0.154414   0.754093   x
            x  H                39         0.638829   0.327797   0.750704   x
            x  H                40         0.075172  -0.050760  -0.003288   x
            x  H                41         1.077295   0.289113   0.981312   x
            x  H                42         0.909900   0.382301   0.988695   x
            x  H                43         0.326985   0.016469   0.750546   x
            x  H                44         0.188526   0.154414   0.745907   x
            x  H                45         0.361171   0.327797   0.749296   x
            x  H                46         0.924828  -0.050760   0.503288   x
            x  H                47        -0.077295   0.289113   0.518688   x
            x  H                48         0.090100   0.382301   0.511305   x
            xxxxxxxxxxxxxxxxxxxxxxxxxxxxxxxxxxxxxxxxxxxxxxxxxxxxxxxxxxxxxxxxx


------------------------------------------------------------------------ <-- SCF
SCF loop      Energy                           Energy gain       Timer   <-- SCF
                                               per atom          (sec)   <-- SCF
------------------------------------------------------------------------ <-- SCF
Initial  -6.92341188E+002                                        494.25  <-- SCF
      1  -6.94610377E+002                    4.72747780E-002     507.47  <-- SCF
      2  -6.94621784E+002                    2.37649424E-004     524.09  <-- SCF
      3  -6.94441840E+002                   -3.74883069E-003     540.67  <-- SCF
      4  -6.94436480E+002                   -1.11672684E-004     557.61  <-- SCF
      5  -6.94436470E+002                   -2.20078006E-007     574.12  <-- SCF
      6  -6.94436469E+002                   -3.12482034E-009     590.97  <-- SCF
      7  -6.94436469E+002                    4.59001346E-012     607.47  <-- SCF
      8  -6.94436469E+002                    2.06278709E-011     619.28  <-- SCF
      9  -6.94436469E+002                    7.47211494E-013     631.16  <-- SCF
     10  -6.94436469E+002                    7.12972692E-013     642.95  <-- SCF
------------------------------------------------------------------------ <-- SCF
 
Final energy =  -694.4364694196     eV
(energy not corrected for finite basis set)
 

 ******************************** Symmetrised Forces ********************************
 *                                                                                  *
 *                           Cartesian components (eV/A)                            *
 * -------------------------------------------------------------------------------- *
 *                         x                    y                    z              *
 *                                                                                  *
 * H               1     -1.16346             -1.11282             -0.04166         *
 * H               2      1.17937              1.14871              0.15620         *
 * H               3      1.07393              1.26963              0.08708         *
 * H               4      0.04417             -0.03769              0.00488         *
 * H               5      0.05966             -0.02608              0.00606         *
 * H               6      0.01368              0.06083              0.00616         *
 * H               7      0.01368             -0.06083              0.00616         *
 * H               8      0.05966              0.02608              0.00606         *
 * H               9      0.04417              0.03769              0.00488         *
 * H              10      1.07393             -1.26963              0.08708         *
 * H              11      1.17937             -1.14871              0.15620         *
 * H              12     -1.16346              1.11282             -0.04166         *
 * H              13     -0.01368              0.06083              0.00616         *
 * H              14     -0.05966             -0.02608              0.00606         *
 * H              15     -0.04417             -0.03769              0.00488         *
 * H              16     -1.07393              1.26963              0.08708         *
 * H              17     -1.17937              1.14871              0.15620         *
 * H              18      1.16346             -1.11282             -0.04166         *
 * H              19      0.01368              0.06083             -0.00616         *
 * H              20      0.05966             -0.02608             -0.00606         *
 * H              21      0.04417             -0.03769             -0.00488         *
 * H              22      1.07393              1.26963             -0.08708         *
 * H              23      1.17937              1.14871             -0.15620         *
 * H              24     -1.16346             -1.11282              0.04166         *
 * H              25     -0.01368             -0.06083             -0.00616         *
 * H              26     -0.05966              0.02608             -0.00606         *
 * H              27     -0.04417              0.03769             -0.00488         *
 * H              28     -1.07393             -1.26963             -0.08708         *
 * H              29     -1.17937             -1.14871             -0.15620         *
 * H              30      1.16346              1.11282              0.04166         *
 * H              31     -0.01368              0.06083             -0.00616         *
 * H              32     -0.05966             -0.02608             -0.00606         *
 * H              33     -0.04417             -0.03769             -0.00488         *
 * H              34     -1.07393              1.26963             -0.08708         *
 * H              35     -1.17937              1.14871             -0.15620         *
 * H              36      1.16346             -1.11282              0.04166         *
 * H              37      0.01368             -0.06083             -0.00616         *
 * H              38      0.05966              0.02608             -0.00606         *
 * H              39      0.04417              0.03769             -0.00488         *
 * H              40      1.07393             -1.26963             -0.08708         *
 * H              41      1.17937             -1.14871             -0.15620         *
 * H              42     -1.16346              1.11282              0.04166         *
 * H              43     -0.01368             -0.06083              0.00616         *
 * H              44     -0.05966              0.02608              0.00606         *
 * H              45     -0.04417              0.03769              0.00488         *
 * H              46     -1.07393             -1.26963              0.08708         *
 * H              47     -1.17937             -1.14871              0.15620         *
 * H              48      1.16346              1.11282             -0.04166         *
 *                                                                                  *
 ************************************************************************************

 *********** Symmetrised Stress Tensor ***********
 *                                               *
 *          Cartesian components (GPa)           *
 * --------------------------------------------- *
 *             x             y             z     *
 *                                               *
 *  x   -246.842800      0.000000      0.000000  *
 *  y      0.000000   -247.027958      0.000000  *
 *  z      0.000000      0.000000   -229.987141  *
 *                                               *
 *  Pressure:  241.2860                          *
 *                                               *
 *************************************************
  
 +------------+-------------+-------------+-----------------+ <-- min LBFGS
 |    Step    |   lambda    |   F.delta'  |    enthalpy     | <-- min LBFGS
 +------------+-------------+-------------+-----------------+ <-- min LBFGS
 |  previous  |    0.000000 |    0.275840 |     -578.306402 | <-- min LBFGS
 | trial step |    1.000000 |   -0.986345 |     -577.963172 | <-- min LBFGS
 +------------+-------------+-------------+-----------------+ <-- min LBFGS
  

--------------------------------------------------------------------------------
 LBFGS: improving iteration         2 with line minimization (lambda=  0.218542)
--------------------------------------------------------------------------------

                           -------------------------------
                                      Unit Cell
                           -------------------------------
        Real Lattice(A)              Reciprocal Lattice(1/A)
     2.9219760    -0.0000000     0.0000000        2.150320655   0.000000000   0.000000000
    -0.0000000     5.0855120     0.0000000        0.000000000   1.235506918   0.000000000
     0.0000000     0.0000000     5.2323289        0.000000000   0.000000000   1.200839137

                       Lattice parameters(A)       Cell Angles
                    a =      2.921976          alpha =   90.000000
                    b =      5.085512          beta  =   90.000000
                    c =      5.232329          gamma =   90.000000

                Current cell volume =            77.751068 A**3

                           -------------------------------
                                     Cell Contents
                           -------------------------------

            xxxxxxxxxxxxxxxxxxxxxxxxxxxxxxxxxxxxxxxxxxxxxxxxxxxxxxxxxxxxxxxxx
            x  Element         Atom        Fractional coordinates of atoms  x
            x                 Number           u          v          w      x
            x---------------------------------------------------------------x
            x  H                 1         0.404823   0.114832   0.011127   x
            x  H                 2         0.582424   0.213742   0.018970   x
            x  H                 3         0.579852   0.553939   0.003508   x
            x  H                 4         0.142413   0.171848   0.249265   x
            x  H                 5         0.313789   0.343984   0.245780   x
            x  H                 6         0.171816   0.485500   0.250637   x
            x  H                 7         0.171816   0.514500   0.750637   x
            x  H                 8         0.313789   0.656016   0.745780   x
            x  H                 9         0.142413   0.828152   0.749265   x
            x  H                10         0.579852   0.446061   0.503508   x
            x  H                11         0.582424   0.786258   0.518970   x
            x  H                12         0.404823   0.885168   0.511127   x
            x  H                13         0.328184   0.985500   0.250637   x
            x  H                14         0.186211   0.843984   0.245780   x
            x  H                15         0.357587   0.671848   0.249265   x
            x  H                16        -0.079852   0.053939   0.003508   x
            x  H                17        -0.082424   0.713742   0.018970   x
            x  H                18         0.095177   0.614832   0.011127   x
            x  H                19         0.671816   0.985500   0.249363   x
            x  H                20         0.813789   0.843984   0.254220   x
            x  H                21         0.642413   0.671848   0.250735   x
            x  H                22         1.079852   0.053939   0.496492   x
            x  H                23         1.082424   0.713742   0.481030   x
            x  H                24         0.904823   0.614832   0.488873   x
            x  H                25         0.828184   0.514500   0.749363   x
            x  H                26         0.686211   0.656016   0.754220   x
            x  H                27         0.857587   0.828152   0.750735   x
            x  H                28         0.420148   0.446061  -0.003508   x
            x  H                29         0.417576   0.786258   0.981030   x
            x  H                30         0.595177   0.885168   0.988873   x
            x  H                31         0.828184   0.485500   0.249363   x
            x  H                32         0.686211   0.343984   0.254220   x
            x  H                33         0.857587   0.171848   0.250735   x
            x  H                34         0.420148   0.553939   0.496492   x
            x  H                35         0.417576   0.213742   0.481030   x
            x  H                36         0.595177   0.114832   0.488873   x
            x  H                37         0.671816   0.014500   0.749363   x
            x  H                38         0.813789   0.156016   0.754220   x
            x  H                39         0.642413   0.328152   0.750735   x
            x  H                40         0.079852  -0.053939  -0.003508   x
            x  H                41         1.082424   0.286258   0.981030   x
            x  H                42         0.904823   0.385168   0.988873   x
            x  H                43         0.328184   0.014500   0.750637   x
            x  H                44         0.186211   0.156016   0.745780   x
            x  H                45         0.357587   0.328152   0.749265   x
            x  H                46         0.920148  -0.053939   0.503508   x
            x  H                47        -0.082424   0.286258   0.518970   x
            x  H                48         0.095177   0.385168   0.511127   x
            xxxxxxxxxxxxxxxxxxxxxxxxxxxxxxxxxxxxxxxxxxxxxxxxxxxxxxxxxxxxxxxxx


------------------------------------------------------------------------ <-- SCF
SCF loop      Energy                           Energy gain       Timer   <-- SCF
                                               per atom          (sec)   <-- SCF
------------------------------------------------------------------------ <-- SCF
Initial  -6.93512562E+002                                        660.44  <-- SCF
      1  -6.94921707E+002                    2.93571794E-002     673.53  <-- SCF
      2  -6.94930103E+002                    1.74914296E-004     690.09  <-- SCF
      3  -6.94817485E+002                   -2.34619891E-003     706.60  <-- SCF
      4  -6.94814308E+002                   -6.61968322E-005     723.44  <-- SCF
      5  -6.94814300E+002                   -1.69644028E-007     739.89  <-- SCF
      6  -6.94814299E+002                   -4.91108279E-009     756.70  <-- SCF
      7  -6.94814299E+002                   -3.08149214E-012     773.07  <-- SCF
      8  -6.94814299E+002                    1.10369784E-011     784.69  <-- SCF
      9  -6.94814299E+002                    3.36345875E-013     796.28  <-- SCF
     10  -6.94814299E+002                    2.81966601E-014     807.86  <-- SCF
------------------------------------------------------------------------ <-- SCF
 
Final energy =  -694.8142994022     eV
(energy not corrected for finite basis set)
 

 ******************************** Symmetrised Forces ********************************
 *                                                                                  *
 *                           Cartesian components (eV/A)                            *
 * -------------------------------------------------------------------------------- *
 *                         x                    y                    z              *
 *                                                                                  *
 * H               1      0.00117              0.00687              0.00775         *
 * H               2      0.00015              0.00184              0.01027         *
 * H               3     -0.00228             -0.00186             -0.00048         *
 * H               4     -0.14154              0.01752              0.00339         *
 * H               5     -0.08422              0.11206              0.01054         *
 * H               6      0.05400             -0.13089             -0.00515         *
 * H               7      0.05400              0.13089             -0.00515         *
 * H               8     -0.08422             -0.11206              0.01054         *
 * H               9     -0.14154             -0.01752              0.00339         *
 * H              10     -0.00228              0.00186             -0.00048         *
 * H              11      0.00015             -0.00184              0.01027         *
 * H              12      0.00117             -0.00687              0.00775         *
 * H              13     -0.05400             -0.13089             -0.00515         *
 * H              14      0.08422              0.11206              0.01054         *
 * H              15      0.14154              0.01752              0.00339         *
 * H              16      0.00228             -0.00186             -0.00048         *
 * H              17     -0.00015              0.00184              0.01027         *
 * H              18     -0.00117              0.00687              0.00775         *
 * H              19      0.05400             -0.13089              0.00515         *
 * H              20     -0.08422              0.11206             -0.01054         *
 * H              21     -0.14154              0.01752             -0.00339         *
 * H              22     -0.00228             -0.00186              0.00048         *
 * H              23      0.00015              0.00184             -0.01027         *
 * H              24      0.00117              0.00687             -0.00775         *
 * H              25     -0.05400              0.13089              0.00515         *
 * H              26      0.08422             -0.11206             -0.01054         *
 * H              27      0.14154             -0.01752             -0.00339         *
 * H              28      0.00228              0.00186              0.00048         *
 * H              29     -0.00015             -0.00184             -0.01027         *
 * H              30     -0.00117             -0.00687             -0.00775         *
 * H              31     -0.05400             -0.13089              0.00515         *
 * H              32      0.08422              0.11206             -0.01054         *
 * H              33      0.14154              0.01752             -0.00339         *
 * H              34      0.00228             -0.00186              0.00048         *
 * H              35     -0.00015              0.00184             -0.01027         *
 * H              36     -0.00117              0.00687             -0.00775         *
 * H              37      0.05400              0.13089              0.00515         *
 * H              38     -0.08422             -0.11206             -0.01054         *
 * H              39     -0.14154             -0.01752             -0.00339         *
 * H              40     -0.00228              0.00186              0.00048         *
 * H              41      0.00015             -0.00184             -0.01027         *
 * H              42      0.00117             -0.00687             -0.00775         *
 * H              43     -0.05400              0.13089             -0.00515         *
 * H              44      0.08422             -0.11206              0.01054         *
 * H              45      0.14154             -0.01752              0.00339         *
 * H              46      0.00228              0.00186             -0.00048         *
 * H              47     -0.00015             -0.00184              0.01027         *
 * H              48     -0.00117             -0.00687              0.00775         *
 *                                                                                  *
 ************************************************************************************

 *********** Symmetrised Stress Tensor ***********
 *                                               *
 *          Cartesian components (GPa)           *
 * --------------------------------------------- *
 *             x             y             z     *
 *                                               *
 *  x   -230.541616      0.000000      0.000000  *
 *  y      0.000000   -230.424299      0.000000  *
 *  z      0.000000      0.000000   -233.937514  *
 *                                               *
 *  Pressure:  231.6345                          *
 *                                               *
 *************************************************
  
 +------------+-------------+-------------+-----------------+ <-- min LBFGS
 |    Step    |   lambda    |   F.delta'  |    enthalpy     | <-- min LBFGS
 +------------+-------------+-------------+-----------------+ <-- min LBFGS
 |  previous  |    0.000000 |    0.275840 |     -578.306402 | <-- min LBFGS
 | trial step |    1.000000 |   -0.986345 |     -577.963172 | <-- min LBFGS
 |  line step |    0.218542 |    0.046779 |     -578.346139 | <-- min LBFGS
 +------------+-------------+-------------+-----------------+ <-- min LBFGS
  
 LBFGS: finished iteration     2 with enthalpy= -5.78346139E+002 eV
  
 +-----------+-----------------+-----------------+------------+-----+ <-- LBFGS
 | Parameter |      value      |    tolerance    |    units   | OK? | <-- LBFGS
 +-----------+-----------------+-----------------+------------+-----+ <-- LBFGS
 |  dE/ion   |   8.278566E-004 |   1.000000E-009 |         eV | No  | <-- LBFGS
 |  |F|max   |   1.426650E-001 |   1.000000E-005 |       eV/A | No  | <-- LBFGS
 |  |dR|max  |   5.931001E-003 |   1.000000E-005 |          A | No  | <-- LBFGS
 |   Smax    |   9.575701E+000 |   1.000000E-005 |        GPa | No  | <-- LBFGS
 +-----------+-----------------+-----------------+------------+-----+ <-- LBFGS
  

================================================================================
 Starting LBFGS iteration          3 ...
================================================================================
  
 +------------+-------------+-------------+-----------------+ <-- min LBFGS
 |    Step    |   lambda    |   F.delta'  |    enthalpy     | <-- min LBFGS
 +------------+-------------+-------------+-----------------+ <-- min LBFGS
 |  previous  |    0.000000 |    0.186956 |     -578.346139 | <-- min LBFGS
 +------------+-------------+-------------+-----------------+ <-- min LBFGS
  

--------------------------------------------------------------------------------
 LBFGS: starting iteration         3 with trial guess (lambda=  1.000000)
--------------------------------------------------------------------------------

                           -------------------------------
                                      Unit Cell
                           -------------------------------
        Real Lattice(A)              Reciprocal Lattice(1/A)
     2.9042116    -0.0000000     0.0000000        2.163473669   0.000000000   0.000000000
    -0.0000000     5.0541537     0.0000000        0.000000000   1.243172577   0.000000000
     0.0000000     0.0000000     5.2123897        0.000000000   0.000000000   1.205432767

                       Lattice parameters(A)       Cell Angles
                    a =      2.904212          alpha =   90.000000
                    b =      5.054154          beta  =   90.000000
                    c =      5.212390          gamma =   90.000000

                Current cell volume =            76.509185 A**3

                           -------------------------------
                                     Cell Contents
                           -------------------------------

            xxxxxxxxxxxxxxxxxxxxxxxxxxxxxxxxxxxxxxxxxxxxxxxxxxxxxxxxxxxxxxxxx
            x  Element         Atom        Fractional coordinates of atoms  x
            x                 Number           u          v          w      x
            x---------------------------------------------------------------x
            x  H                 1         0.404066   0.114541   0.011279   x
            x  H                 2         0.583244   0.214239   0.019253   x
            x  H                 3         0.580500   0.554400   0.003531   x
            x  H                 4         0.137098   0.172209   0.249338   x
            x  H                 5         0.310655   0.346405   0.246005   x
            x  H                 6         0.173870   0.482687   0.250532   x
            x  H                 7         0.173870   0.517313   0.750532   x
            x  H                 8         0.310655   0.653595   0.746005   x
            x  H                 9         0.137098   0.827791   0.749338   x
            x  H                10         0.580500   0.445600   0.503531   x
            x  H                11         0.583244   0.785761   0.519253   x
            x  H                12         0.404066   0.885459   0.511279   x
            x  H                13         0.326130   0.982687   0.250532   x
            x  H                14         0.189345   0.846405   0.246005   x
            x  H                15         0.362902   0.672209   0.249338   x
            x  H                16        -0.080500   0.054400   0.003531   x
            x  H                17        -0.083244   0.714239   0.019253   x
            x  H                18         0.095934   0.614541   0.011279   x
            x  H                19         0.673870   0.982687   0.249468   x
            x  H                20         0.810655   0.846405   0.253995   x
            x  H                21         0.637098   0.672209   0.250662   x
            x  H                22         1.080500   0.054400   0.496469   x
            x  H                23         1.083244   0.714239   0.480747   x
            x  H                24         0.904066   0.614541   0.488721   x
            x  H                25         0.826130   0.517313   0.749468   x
            x  H                26         0.689345   0.653595   0.753995   x
            x  H                27         0.862902   0.827791   0.750662   x
            x  H                28         0.419500   0.445600  -0.003531   x
            x  H                29         0.416756   0.785761   0.980747   x
            x  H                30         0.595934   0.885459   0.988721   x
            x  H                31         0.826130   0.482687   0.249468   x
            x  H                32         0.689345   0.346405   0.253995   x
            x  H                33         0.862902   0.172209   0.250662   x
            x  H                34         0.419500   0.554400   0.496469   x
            x  H                35         0.416756   0.214239   0.480747   x
            x  H                36         0.595934   0.114541   0.488721   x
            x  H                37         0.673870   0.017313   0.749468   x
            x  H                38         0.810655   0.153595   0.753995   x
            x  H                39         0.637098   0.327791   0.750662   x
            x  H                40         0.080500  -0.054400  -0.003531   x
            x  H                41         1.083244   0.285761   0.980747   x
            x  H                42         0.904066   0.385459   0.988721   x
            x  H                43         0.326130   0.017313   0.750532   x
            x  H                44         0.189345   0.153595   0.746005   x
            x  H                45         0.362902   0.327791   0.749338   x
            x  H                46         0.919500  -0.054400   0.503531   x
            x  H                47        -0.083244   0.285761   0.519253   x
            x  H                48         0.095934   0.385459   0.511279   x
            xxxxxxxxxxxxxxxxxxxxxxxxxxxxxxxxxxxxxxxxxxxxxxxxxxxxxxxxxxxxxxxxx


------------------------------------------------------------------------ <-- SCF
SCF loop      Energy                           Energy gain       Timer   <-- SCF
                                               per atom          (sec)   <-- SCF
------------------------------------------------------------------------ <-- SCF
Initial  -6.92300916E+002                                        825.33  <-- SCF
      1  -6.93067841E+002                    1.59775992E-002     838.48  <-- SCF
      2  -6.93073692E+002                    1.21902960E-004     854.92  <-- SCF
      3  -6.92952093E+002                   -2.53331467E-003     871.36  <-- SCF
      4  -6.92949895E+002                   -4.57890014E-005     888.29  <-- SCF
      5  -6.92949894E+002                   -3.24491294E-008     904.74  <-- SCF
      6  -6.92949894E+002                   -2.11486431E-009     921.33  <-- SCF
      7  -6.92949894E+002                   -1.11018307E-010     937.70  <-- SCF
      8  -6.92949894E+002                    3.43395040E-012     949.34  <-- SCF
      9  -6.92949894E+002                    1.81264244E-013     961.02  <-- SCF
------------------------------------------------------------------------ <-- SCF
 
Final energy =  -692.9498937192     eV
(energy not corrected for finite basis set)
 

 ******************************** Symmetrised Forces ********************************
 *                                                                                  *
 *                           Cartesian components (eV/A)                            *
 * -------------------------------------------------------------------------------- *
 *                         x                    y                    z              *
 *                                                                                  *
 * H               1      0.05209              0.05494              0.10313         *
 * H               2     -0.07295             -0.06453              0.09796         *
 * H               3     -0.08737             -0.10647             -0.00805         *
 * H               4      0.25795             -0.06609             -0.00616         *
[...]
              H 29 -- H 38                  -0.01        2.47047
              H 8  -- H 47                  -0.01        2.47047
              H 5  -- H 17                  -0.01        2.47047
              H 11 -- H 44                  -0.01        2.47047
              H 20 -- H 35                  -0.01        2.47047
              H 2  -- H 14                  -0.01        2.47047
              H 9  -- H 28                   0.03        2.47094
              H 16 -- H 21                   0.03        2.47094
              H 15 -- H 22                   0.03        2.47094
              H 10 -- H 27                   0.03        2.47094
              H 4  -- H 34                   0.03        2.47094
              H 3  -- H 33                   0.03        2.47094
              H 40 -- H 45                   0.03        2.47094
              H 39 -- H 46                   0.03        2.47094
              H 18 -- H 23                   0.03        2.47616
              H 12 -- H 29                   0.03        2.47616
              H 11 -- H 30                   0.03        2.47616
              H 17 -- H 24                   0.03        2.47616
              H 1  -- H 35                   0.03        2.47616
              H 2  -- H 36                   0.03        2.47616
              H 42 -- H 47                   0.03        2.47616
              H 41 -- H 48                   0.03        2.47616
              H 29 -- H 42                   0.02        2.48016
              H 11 -- H 48                   0.02        2.48016
              H 23 -- H 36                   0.02        2.48016
              H 1  -- H 17                   0.02        2.48016
              H 30 -- H 41                   0.02        2.48016
              H 12 -- H 47                   0.02        2.48016
              H 2  -- H 18                   0.02        2.48016
              H 24 -- H 35                   0.02        2.48016
              H 10 -- H 20                   0.00        2.50278
              H 14 -- H 28                   0.00        2.50278
              H 34 -- H 44                   0.00        2.50278
              H 3  -- H 38                   0.00        2.50278
              H 32 -- H 46                   0.00        2.50278
              H 5  -- H 40                   0.00        2.50278
              H 16 -- H 26                   0.00        2.50278
              H 8  -- H 22                   0.00        2.50278
              H 6  -- H 12                   0.01        2.53216
              H 18 -- H 43                   0.01        2.53216
              H 24 -- H 37                   0.01        2.53216
              H 30 -- H 31                   0.01        2.53216
              H 1  -- H 7                    0.01        2.53216
              H 25 -- H 36                   0.01        2.53216
              H 13 -- H 48                   0.01        2.53216
              H 19 -- H 42                   0.01        2.53216
              H 25 -- H 46                   0.02        2.53940
              H 16 -- H 31                   0.02        2.53940
              H 7  -- H 40                   0.02        2.53940
              H 6  -- H 22                   0.02        2.53940
              H 28 -- H 43                   0.02        2.53940
              H 10 -- H 37                   0.02        2.53940
              H 13 -- H 34                   0.02        2.53940
              H 3  -- H 19                   0.02        2.53940
              H 11 -- H 33                   0.04        2.54168
              H 4  -- H 29                   0.04        2.54168
              H 23 -- H 45                   0.04        2.54168
              H 17 -- H 39                   0.04        2.54168
              H 21 -- H 47                   0.04        2.54168
              H 15 -- H 41                   0.04        2.54168
              H 9  -- H 35                   0.04        2.54168
              H 2  -- H 27                   0.04        2.54168
              H 42 -- H 48                   0.03        2.55421
              H 12 -- H 30                   0.03        2.55421
              H 18 -- H 24                   0.03        2.55421
              H 1  -- H 36                   0.03        2.55421
              H 20 -- H 32                  -0.07        2.56022
              H 5  -- H 14                  -0.07        2.56022
              H 26 -- H 38                  -0.07        2.56022
              H 8  -- H 44                  -0.07        2.56022
              H 13 -- H 24                   0.01        2.56525
              H 7  -- H 30                   0.01        2.56525
              H 18 -- H 19                   0.01        2.56525
              H 12 -- H 25                   0.01        2.56525
              H 6  -- H 36                   0.01        2.56525
              H 1  -- H 31                   0.01        2.56525
              H 42 -- H 43                   0.01        2.56525
              H 37 -- H 48                   0.01        2.56525
              H 9  -- H 48                   0.04        2.56775
              H 27 -- H 42                   0.04        2.56775
              H 21 -- H 36                   0.04        2.56775
              H 1  -- H 15                   0.04        2.56775
              H 4  -- H 18                   0.04        2.56775
              H 30 -- H 39                   0.04        2.56775
              H 24 -- H 33                   0.04        2.56775
              H 12 -- H 45                   0.04        2.56775
              H 7  -- H 43                  -0.05        2.57351
              H 6  -- H 13                  -0.05        2.57351
              H 25 -- H 37                  -0.05        2.57351
              H 19 -- H 31                  -0.05        2.57351
              H 32 -- H 39                   0.02        2.58614
              H 20 -- H 27                   0.02        2.58614
              H 9  -- H 14                   0.02        2.58614
              H 5  -- H 45                   0.02        2.58614
              H 33 -- H 38                   0.02        2.58614
              H 21 -- H 26                   0.02        2.58614
              H 8  -- H 15                   0.02        2.58614
              H 4  -- H 44                   0.02        2.58614
              H 16 -- H 22                   0.05        2.60286
              H 3  -- H 34                   0.05        2.60286
              H 40 -- H 46                   0.05        2.60286
              H 10 -- H 28                   0.05        2.60286
              H 13 -- H 43                   0.02        2.60783
              H 6  -- H 7                    0.02        2.60783
              H 19 -- H 37                   0.02        2.60783
              H 25 -- H 31                   0.02        2.60783
              H 27 -- H 39                   0.01        2.61510
              H 9  -- H 45                   0.01        2.61510
              H 21 -- H 33                   0.01        2.61510
              H 4  -- H 15                   0.01        2.61510
              H 29 -- H 45                   0.05        2.61844
              H 11 -- H 39                   0.05        2.61844
              H 17 -- H 33                   0.05        2.61844
              H 4  -- H 23                   0.05        2.61844
              H 15 -- H 35                   0.05        2.61844
              H 2  -- H 21                   0.05        2.61844
              H 27 -- H 47                   0.05        2.61844
              H 9  -- H 41                   0.05        2.61844
              H 25 -- H 40                   0.05        2.63072
              H 22 -- H 31                   0.05        2.63072
              H 28 -- H 37                   0.05        2.63072
              H 7  -- H 46                   0.05        2.63072
              H 6  -- H 16                   0.05        2.63072
              H 10 -- H 43                   0.05        2.63072
              H 19 -- H 34                   0.05        2.63072
              H 3  -- H 13                   0.05        2.63072
              H 15 -- H 16                   0.04        2.65199
              H 27 -- H 28                   0.04        2.65199
              H 21 -- H 22                   0.04        2.65199
              H 9  -- H 10                   0.04        2.65199
              H 3  -- H 4                    0.04        2.65199
              H 33 -- H 34                   0.04        2.65199
              H 39 -- H 40                   0.04        2.65199
              H 45 -- H 46                   0.04        2.65199
              H 11 -- H 32                   0.02        2.65595
              H 5  -- H 29                   0.02        2.65595
              H 23 -- H 44                   0.02        2.65595
              H 17 -- H 38                   0.02        2.65595
              H 8  -- H 35                   0.02        2.65595
              H 2  -- H 26                   0.02        2.65595
              H 20 -- H 47                   0.02        2.65595
              H 14 -- H 41                   0.02        2.65595
              H 27 -- H 48                   0.06        2.66162
              H 9  -- H 42                   0.06        2.66162
              H 1  -- H 21                   0.06        2.66162
              H 15 -- H 36                   0.06        2.66162
              H 18 -- H 33                   0.06        2.66162
              H 4  -- H 24                   0.06        2.66162
              H 30 -- H 45                   0.06        2.66162
              H 12 -- H 39                   0.06        2.66162
              H 3  -- H 10                   0.05        2.66184
              H 16 -- H 46                   0.05        2.66184
              H 28 -- H 34                   0.05        2.66184
              H 22 -- H 40                   0.05        2.66184
              H 12 -- H 48                   0.04        2.68494
              H 30 -- H 42                   0.04        2.68494
              H 1  -- H 18                   0.04        2.68494
              H 24 -- H 36                   0.04        2.68494
              H 23 -- H 33                   0.06        2.68645
              H 29 -- H 39                   0.06        2.68645
              H 11 -- H 45                   0.06        2.68645
              H 4  -- H 17                   0.06        2.68645
              H 21 -- H 35                   0.06        2.68645
              H 27 -- H 41                   0.06        2.68645
              H 9  -- H 47                   0.06        2.68645
              H 2  -- H 15                   0.06        2.68645
              H 10 -- H 14                   0.03        2.69042
              H 20 -- H 28                   0.03        2.69042
              H 3  -- H 44                   0.03        2.69042
              H 34 -- H 38                   0.03        2.69042
              H 5  -- H 46                   0.03        2.69042
              H 22 -- H 26                   0.03        2.69042
              H 8  -- H 16                   0.03        2.69042
              H 32 -- H 40                   0.03        2.69042
              H 31 -- H 46                   0.04        2.69922
              H 16 -- H 25                   0.04        2.69922
              H 10 -- H 19                   0.04        2.69922
              H 7  -- H 22                   0.04        2.69922
              H 6  -- H 40                   0.04        2.69922
              H 13 -- H 28                   0.04        2.69922
              H 3  -- H 37                   0.04        2.69922
              H 34 -- H 43                   0.04        2.69922
              H 28 -- H 48                   0.02        2.71393
              H 16 -- H 36                   0.02        2.71393
              H 12 -- H 40                   0.02        2.71393
              H 1  -- H 22                   0.02        2.71393
              H 10 -- H 42                   0.02        2.71393
              H 18 -- H 34                   0.02        2.71393
              H 3  -- H 24                   0.02        2.71393
              H 30 -- H 46                   0.02        2.71393
              H 11 -- H 47                   0.06        2.71731
              H 2  -- H 17                   0.06        2.71731
              H 29 -- H 41                   0.06        2.71731
              H 23 -- H 35                   0.06        2.71731
              H 22 -- H 34                   0.06        2.72522
              H 3  -- H 16                   0.06        2.72522
              H 28 -- H 40                   0.06        2.72522
              H 10 -- H 46                   0.06        2.72522
              H 20 -- H 42                   0.03        2.72744
              H 14 -- H 48                   0.03        2.72744
              H 26 -- H 36                   0.03        2.72744
              H 1  -- H 8                    0.03        2.72744
              H 24 -- H 38                   0.03        2.72744
              H 18 -- H 44                   0.03        2.72744
              H 30 -- H 32                   0.03        2.72744
              H 5  -- H 12                   0.03        2.72744
              H 23 -- H 39                   0.05        2.73742
              H 29 -- H 33                   0.05        2.73742
              H 17 -- H 45                   0.05        2.73742
              H 4  -- H 11                   0.05        2.73742
              H 21 -- H 41                   0.05        2.73742
              H 15 -- H 47                   0.05        2.73742
              H 27 -- H 35                   0.05        2.73742
              H 2  -- H 9                    0.05        2.73742
              H 24 -- H 43                   0.04        2.74064
              H 6  -- H 30                   0.04        2.74064
              H 18 -- H 37                   0.04        2.74064
              H 12 -- H 31                   0.04        2.74064
              H 7  -- H 36                   0.04        2.74064
              H 1  -- H 25                   0.04        2.74064
              H 13 -- H 42                   0.04        2.74064
              H 19 -- H 48                   0.04        2.74064
              H 32 -- H 45                   0.02        2.74213
              H 14 -- H 27                   0.02        2.74213
              H 9  -- H 20                   0.02        2.74213
              H 5  -- H 39                   0.02        2.74213
              H 4  -- H 38                   0.02        2.74213
              H 33 -- H 44                   0.02        2.74213
              H 8  -- H 21                   0.02        2.74213
              H 15 -- H 26                   0.02        2.74213
              H 6  -- H 8                    0.02        2.74322
              H 13 -- H 44                   0.02        2.74322
              H 5  -- H 7                    0.02        2.74322
              H 25 -- H 32                   0.02        2.74322
              H 14 -- H 43                   0.02        2.74322
              H 20 -- H 37                   0.02        2.74322
              H 26 -- H 31                   0.02        2.74322
              H 19 -- H 38                   0.02        2.74322
              H 17 -- H 46                  -0.00        2.76628
              H 2  -- H 10                  -0.00        2.76628
              H 23 -- H 40                  -0.00        2.76628
              H 22 -- H 41                  -0.00        2.76628
              H 28 -- H 35                  -0.00        2.76628
              H 16 -- H 47                  -0.00        2.76628
              H 29 -- H 34                  -0.00        2.76628
              H 3  -- H 11                  -0.00        2.76628
              H 6  -- H 45                   0.02        2.76714
              H 4  -- H 43                   0.02        2.76714
              H 33 -- H 37                   0.02        2.76714
              H 9  -- H 13                   0.02        2.76714
              H 31 -- H 39                   0.02        2.76714
              H 7  -- H 15                   0.02        2.76714
              H 19 -- H 27                   0.02        2.76714
              H 21 -- H 25                   0.02        2.76714
              H 22 -- H 25                   0.05        2.78067
              H 6  -- H 46                   0.05        2.78067
              H 31 -- H 40                   0.05        2.78067
              H 10 -- H 13                   0.05        2.78067
              H 19 -- H 28                   0.05        2.78067
              H 7  -- H 16                   0.05        2.78067
              H 34 -- H 37                   0.05        2.78067
              H 3  -- H 43                   0.05        2.78067
              H 26 -- H 35                   0.04        2.78090
              H 23 -- H 38                   0.04        2.78090
              H 17 -- H 44                   0.04        2.78090
              H 2  -- H 8                    0.04        2.78090
              H 29 -- H 32                   0.04        2.78090
              H 5  -- H 11                   0.04        2.78090
              H 20 -- H 41                   0.04        2.78090
              H 14 -- H 47                   0.04        2.78090
              H 6  -- H 25                   0.03        2.79192
              H 13 -- H 37                   0.03        2.79192
              H 7  -- H 31                   0.03        2.79192
              H 19 -- H 43                   0.03        2.79192
              H 21 -- H 27                   0.03        2.79635
              H 9  -- H 15                   0.03        2.79635
              H 33 -- H 39                   0.03        2.79635
              H 4  -- H 45                   0.03        2.79635
              H 20 -- H 26                   0.02        2.80158
              H 8  -- H 14                   0.02        2.80158
              H 32 -- H 38                   0.02        2.80158
              H 5  -- H 44                   0.02        2.80158
              H 11 -- H 17                   0.02        2.80725
              H 2  -- H 47                   0.02        2.80725
              H 35 -- H 41                   0.02        2.80725
              H 23 -- H 29                   0.02        2.80725
              H 20 -- H 48                   0.05        2.81286
              H 14 -- H 42                   0.05        2.81286
              H 8  -- H 36                   0.05        2.81286
              H 1  -- H 26                   0.05        2.81286
              H 5  -- H 30                   0.05        2.81286
              H 24 -- H 44                   0.05        2.81286
              H 12 -- H 32                   0.05        2.81286
              H 18 -- H 38                   0.05        2.81286
              H 24 -- H 42                  -0.00        2.85135
              H 18 -- H 48                  -0.00        2.85135
              H 30 -- H 36                  -0.00        2.85135
              H 1  -- H 12                  -0.00        2.85135
======================================================================


Writing analysis data to Pbcn.castep_bin

Writing model to Pbcn.check
 
 A BibTeX formatted list of references used in this run has been written to 
 Pbcn.bib
 
Initialisation time =      5.33 s
Calculation time    =   5719.77 s
Finalisation time   =     16.37 s
Total time          =   5741.46 s
Peak Memory Use     = 774428 kB
  
Overall parallel efficiency rating: Excellent (97%)                             
  
Data was distributed by:-
k-point (32-way); efficiency rating: Excellent (97%)                            
