 +-------------------------------------------------+
 |                                                 |
 |      CCC   AA    SSS  TTTTT  EEEEE  PPPP        |
 |     C     A  A  S       T    E      P   P       |
 |     C     AAAA   SS     T    EEE    PPPP        |
 |     C     A  A     S    T    E      P           |
 |      CCC  A  A  SSS     T    EEEEE  P           |
 |                                                 |
 +-------------------------------------------------+
 |                                                 |
 | Welcome to Academic Release CASTEP version 18.1 |          
 | Ab Initio Total Energy Program                  |
 |                                                 |
 | Authors:                                        |
 | M. Segall, M. Probert, C. Pickard, P. Hasnip,   |
 | S. Clark, K. Refson, J. R. Yates, M. Payne      |
 |                                                 |
 | Contributors:                                   |
 | P. Lindan, P. Haynes, J. White, V. Milman,      |
 | N. Govind, M. Gibson, P. Tulip, V. Cocula,      |
 | B. Montanari, D. Quigley, M. Glover,            |
 | L. Bernasconi, A. Perlov, M. Plummer,           |
 | E. McNellis, J. Meyer, J. Gale, D. Jochym       |
 | J. Aarons, B. Walker, R. Gillen, D. Jones       |
 | T. Green, I. J. Bush, C. J. Armstrong,          |
 | E. J. Higgins, E. L. Brown, M. S. McFly,        |
 | J. Wilkins, B-C. Shih, P. J. P. Byrne           |
 |                                                 |
 | Copyright (c) 2000 - 2017                       |
 |                                                 |
 |     Distributed under the terms of an           |
 |     Agreement between the United Kingdom        |
 |     Car-Parrinello (UKCP) Consortium,           |
 |     Daresbury Laboratory and Accelrys, Inc.     |
 |                                                 |
 | Please cite                                     |
 |                                                 |
 |     "First principles methods using CASTEP"     |
 |                                                 |
 |         Zeitschrift fuer Kristallographie       |
 |           220(5-6) pp. 567-570 (2005)           |
 |                                                 |
 | S. J. Clark, M. D. Segall, C. J. Pickard,       |
 | P. J. Hasnip, M. J. Probert, K. Refson,         |
 | M. C. Payne                                     |
 |                                                 |
 |       in all publications arising from          |
 |              your use of CASTEP                 |
 |                                                 |
 +-------------------------------------------------+


 Compiled for linux_x86_64_gfortran4.8 on Thu, 19 Jul 2018 15:42:32 +0100
 from code version 70483bd0ad64+  Sun, 10 Dec 2017 12:18:29 +0000
 Compiler: GNU Fortran 4.8.5; Optimisation: fast
 MATHLIBS: Intel MKL(2018.0.0) (LAPACK version 3.7.0)
 FFT Lib : mkl
 Fundamental constants values: CODATA 2014

 Run started: Thu, 27 Aug 2020 15:28:12 +0100

 Atomic calculation performed for H: 1s1

 Converged in 41 iterations to an ae energy of -12.488 eV

   ============================================================                
   | Pseudopotential Report - Date of generation 27-08-2020   |                
   ------------------------------------------------------------                
   | Element: H Ionic charge:  1.00 Level of theory: PBE      |                
   | Atomic Solver: Koelling-Harmon                           |                
   |                                                          |                
   |               Reference Electronic Structure             |                
   |         Orbital         Occupation         Energy        |                
   |            1s              1.000           -0.239        |                
   |                                                          |                
   |                 Pseudopotential Definition               |                
   |        Beta     l      e      Rc     scheme   norm       |                
   |         loc     0   -0.239   0.702     qc      1         |                
   |                                                          |                
   | No charge augmentation                                   |                
   | No partial core correction                               |                
   ------------------------------------------------------------                
   | "0|0.7|2|6|8|10L(qc=10)"                                 |                
   ------------------------------------------------------------                
   |      Author: Chris J. Pickard, Cambridge University      |                
   ============================================================                

 Pseudo atomic calculation performed for H 1s1

 Converged in 24 iterations to a total energy of -12.4855 eV

 Calculation parallelised over 32 processes.
 Data is distributed by k-point(32-way)

 ************************************ Title ************************************
 

 ***************************** General Parameters ******************************
  
 output verbosity                               : normal  (1)
 write checkpoint data to                       : Pbcn.check
 type of calculation                            : geometry optimization
 stress calculation                             : on
 density difference calculation                 : off
 electron localisation func (ELF) calculation   : off
 Hirshfeld analysis                             : off
 unlimited duration calculation
 timing information                             : on
 memory usage estimate                          : on
 write extra output files                       : on
 write final potential to formatted file        : off
 write final density to formatted file          : off
 write structure in CELL formatted file         : on
 write BibTeX reference list                    : on
 write OTFG pseudopotential files               : on
 write electrostatic potential file             : on
 write bands file                               : on
 checkpoint writing                             : both castep_bin and check files
  
 output         length unit                     : A
 output           mass unit                     : amu
 output           time unit                     : ps
 output         charge unit                     : e
 output           spin unit                     : hbar/2
 output         energy unit                     : eV
 output          force unit                     : eV/A
 output       velocity unit                     : A/ps
 output       pressure unit                     : GPa
 output     inv_length unit                     : 1/A
 output      frequency unit                     : cm-1
 output force constant unit                     : eV/A**2
 output         volume unit                     : A**3
 output   IR intensity unit                     : (D/A)**2/amu
 output         dipole unit                     : D
 output         efield unit                     : eV/A/e
 output        entropy unit                     : J/mol/K
  
 wavefunctions paging                           : none
 random number generator seed                   : randomised (152812570)
 data distribution                              : optimal for this architecture
 optimization strategy                          : maximize speed(+++)

 *********************** Exchange-Correlation Parameters ***********************
  
 using functional                               : Perdew Burke Ernzerhof
 relativistic treatment                         : Koelling-Harmon
 DFT+D: Semi-empirical dispersion correction    : off

 ************************* Pseudopotential Parameters **************************
  
 pseudopotential representation                 : reciprocal space
 <beta|phi> representation                      : reciprocal space
 spin-orbit coupling                            : off

 **************************** Basis Set Parameters *****************************
  
 plane wave basis set cut-off                   :  1600.0000   eV
 size of standard grid                          :     2.0000
 size of   fine   gmax                          :    40.9853   1/A
 finite basis set correction                    : automatic
 number of sample energies                      :          3
           sample  spacing                      :     5.0000   eV

 **************************** Electronic Parameters ****************************
  
 number of  electrons                           :  48.00    
 net charge of system                           :  0.000    
 treating system as non-spin-polarized
 number of bands                                :         24

 ********************* Electronic Minimization Parameters **********************
  
 Method: Treating system as non-metallic,
         and number of  SD  steps               :          1
         and number of  CG  steps               :          4
  
 total energy / atom convergence tol.           : 0.1000E-10   eV
 eigen-energy convergence tolerance             : 0.2000E-10   eV
 max force / atom convergence tol.              : ignored
 convergence tolerance window                   :          3   cycles
 max. number of SCF cycles                      :        100
 periodic dipole correction                     : NONE

 ************************** Density Mixing Parameters **************************
  
 density-mixing scheme                          : Broyden
 max. length of mixing history                  :         20
 charge density mixing amplitude                : 0.8000    
 cut-off energy for mixing                      :  1600.       eV

 *********************** Population Analysis Parameters ************************
  
 Population analysis with cutoff                :  3.000       A
 Population analysis output                     : summary and pdos components

 ********************** Geometry Optimization Parameters ***********************
  
 optimization method                            : LBFGS
 max. no. of LBFGS updates                      : unbounded
 variable cell method                           : fixed basis quality
 max. number of steps                           :        100
 estimated bulk modulus                         :  500.0       GPa
 estimated <frequency>                          :  1668.       cm-1
 geom line minimiser                            : on
 with line minimiser tolerance                  :     0.4000
 total energy convergence tolerance             : 0.1000E-08   eV/atom
        max ionic |force| tolerance             : 0.1000E-04   eV/A
 max ionic |displacement| tolerance             : 0.1000E-04   A
   max |stress component| tolerance             : 0.1000E-04   GPa
 convergence tolerance window                   :          2   steps
 backup results every                           :      14400   seconds
 write geom trajectory file                     : on

 *******************************************************************************
  

                           -------------------------------
                                      Unit Cell
                           -------------------------------
        Real Lattice(A)                      Reciprocal Lattice(1/A)
     2.8288592     0.0000000     0.0000000        2.221102164  -0.000000000   0.000000000
     0.0000000     4.9204301     0.0000000       -0.000000000   1.276958555   0.000000000
     0.0000000     0.0000000     5.0502555        0.000000000   0.000000000   1.244132154

                       Lattice parameters(A)       Cell Angles
                    a =      2.828859          alpha =   90.000000
                    b =      4.920430          beta  =   90.000000
                    c =      5.050256          gamma =   90.000000

                       Current cell volume =            70.295537       A**3
                                   density =             0.688253   AMU/A**3
                                           =             1.142871     g/cm^3

                           -------------------------------
                                     Cell Contents
                           -------------------------------
                         Total number of ions in cell =   48
                      Total number of species in cell =    1
                        Max number of any one species =   48

            xxxxxxxxxxxxxxxxxxxxxxxxxxxxxxxxxxxxxxxxxxxxxxxxxxxxxxxxxxxx
            x  Element    Atom        Fractional coordinates of atoms  x
            x            Number           u          v          w      x
            x----------------------------------------------------------x
            x  H            1         0.405637   0.112354   0.010179   x 
            x  H            2         0.582531   0.216660   0.018283   x 
            x  H            3         0.580457   0.556003   0.004408   x 
            x  H            4         0.145135   0.171923   0.249068   x 
            x  H            5         0.315796   0.342496   0.245478   x 
            x  H            6         0.169923   0.486992   0.250546   x 
            x  H            7         0.169923   0.513008   0.750546   x 
            x  H            8         0.315796   0.657504   0.745478   x 
            x  H            9         0.145135   0.828077   0.749068   x 
            x  H           10         0.580457   0.443997   0.504408   x 
            x  H           11         0.582531   0.783340   0.518283   x 
            x  H           12         0.405637   0.887646   0.510179   x 
            x  H           13         0.330077   0.986992   0.250546   x 
            x  H           14         0.184204   0.842496   0.245478   x 
            x  H           15         0.354865   0.671923   0.249068   x 
            x  H           16        -0.080457   0.056003   0.004408   x 
            x  H           17        -0.082531   0.716660   0.018283   x 
            x  H           18         0.094363   0.612354   0.010179   x 
            x  H           19         0.669923   0.986992   0.249454   x 
            x  H           20         0.815796   0.842496   0.254522   x 
            x  H           21         0.645135   0.671923   0.250932   x 
            x  H           22         1.080457   0.056003   0.495592   x 
            x  H           23         1.082531   0.716660   0.481717   x 
            x  H           24         0.905637   0.612354   0.489821   x 
            x  H           25         0.830077   0.513008   0.749454   x 
            x  H           26         0.684204   0.657504   0.754522   x 
            x  H           27         0.854865   0.828077   0.750932   x 
            x  H           28         0.419543   0.443997  -0.004408   x 
            x  H           29         0.417469   0.783340   0.981717   x 
            x  H           30         0.594363   0.887646   0.989821   x 
            x  H           31         0.830077   0.486992   0.249454   x 
            x  H           32         0.684204   0.342496   0.254522   x 
            x  H           33         0.854865   0.171923   0.250932   x 
            x  H           34         0.419543   0.556003   0.495592   x 
            x  H           35         0.417469   0.216660   0.481717   x 
            x  H           36         0.594363   0.112354   0.489821   x 
            x  H           37         0.669923   0.013008   0.749454   x 
            x  H           38         0.815796   0.157504   0.754522   x 
            x  H           39         0.645135   0.328077   0.750932   x 
            x  H           40         0.080457  -0.056003  -0.004408   x 
            x  H           41         1.082531   0.283340   0.981717   x 
            x  H           42         0.905637   0.387646   0.989821   x 
            x  H           43         0.330077   0.013008   0.750546   x 
            x  H           44         0.184204   0.157504   0.745478   x 
            x  H           45         0.354865   0.328077   0.749068   x 
            x  H           46         0.919543  -0.056003   0.504408   x 
            x  H           47        -0.082531   0.283340   0.518283   x 
            x  H           48         0.094363   0.387646   0.510179   x 
            xxxxxxxxxxxxxxxxxxxxxxxxxxxxxxxxxxxxxxxxxxxxxxxxxxxxxxxxxxxx


                         No user defined ionic velocities

                           -------------------------------
                                   Details of Species
                           -------------------------------

                               Mass of species in AMU
                                    H    1.0078250

                          Electric Quadrupole Moment (Barn)
                                    H    0.0028600 Isotope  2

                          Files used for pseudopotentials:
                                    H 0|0.7|2|6|8|10L(qc=10)

                           -------------------------------
                              k-Points For BZ Sampling
                           -------------------------------
                       MP grid size for SCF calculation is 12 12 12
                            with an offset of   0.000  0.000  0.000
                       Number of kpoints used =           216

                           -------------------------------
                               Symmetry and Constraints
                           -------------------------------

                      Maximum deviation from symmetry = 0.983299E-14     ANG

                      Number of symmetry operations   =           8
                      Number of ionic constraints     =           3
                      Point group of crystal =     8: D2h, mmm, 2/m 2/m 2/m
                      Space group of crystal =    60: Pbcn, -P 2n 2ab

             Set iprint > 1 for details on symmetry rotations/translations

                         Centre of mass is constrained
             Set iprint > 1 for details of linear ionic constraints

                         Number of cell constraints= 3
                         Cell constraints are:  1 2 3 0 0 0

                         External pressure/stress (GPa)
                        300.00000   0.00000   0.00000
                                  300.00000   0.00000
                                            300.00000
  
+---------------- MEMORY AND SCRATCH DISK ESTIMATES PER PROCESS --------------+
|                                                     Memory          Disk    |
| Baseline code, static data and system overhead      479.0 MB         0.0 MB |
| BLAS internal memory storage                          0.0 MB         0.0 MB |
| Model and support data                               91.4 MB         0.0 MB |
| Electronic energy minimisation requirements         109.2 MB         0.0 MB |
| Force calculation requirements                       23.7 MB         0.0 MB |
| Stress calculation requirements                      30.1 MB         0.0 MB |
|                                               ----------------------------- |
| Approx. total storage required per process          679.7 MB         0.0 MB |
|                                                                             |
| Requirements will fluctuate during execution and may exceed these estimates |
+-----------------------------------------------------------------------------+
Calculating finite basis set correction with  3 cut-off energies.
Calculating total energy with cut-off of 1590.000 eV.
------------------------------------------------------------------------ <-- SCF
SCF loop      Energy                           Energy gain       Timer   <-- SCF
                                               per atom          (sec)   <-- SCF
------------------------------------------------------------------------ <-- SCF
Initial   1.05779209E+003                                         12.15  <-- SCF
      1  -5.74817288E+002                    3.40126954E+001      26.41  <-- SCF
      2  -6.81571027E+002                    2.22403624E+000      36.50  <-- SCF
      3  -6.82540307E+002                    2.01933342E-002      51.45  <-- SCF
      4  -6.82532530E+002                   -1.62030134E-004      66.40  <-- SCF
      5  -6.82533174E+002                    1.34292554E-005      81.17  <-- SCF
      6  -6.82533220E+002                    9.58358431E-007      96.23  <-- SCF
      7  -6.82533221E+002                    1.62756580E-008     111.08  <-- SCF
      8  -6.82533221E+002                    5.79491717E-010     125.78  <-- SCF
      9  -6.82533221E+002                    1.94033303E-011     136.66  <-- SCF
     10  -6.82533221E+002                   -3.82668959E-014     147.21  <-- SCF
     11  -6.82533221E+002                    3.06135167E-013     157.67  <-- SCF
------------------------------------------------------------------------ <-- SCF
 
Final energy =  -682.5332211028     eV
(energy not corrected for finite basis set)
 
Calculating total energy with cut-off of 1595.000 eV.
------------------------------------------------------------------------ <-- SCF
SCF loop      Energy                           Energy gain       Timer   <-- SCF
                                               per atom          (sec)   <-- SCF
------------------------------------------------------------------------ <-- SCF
Initial  -6.82533221E+002                                        163.94  <-- SCF
      1  -6.82533363E+002                    2.94828951E-006     176.55  <-- SCF
      2  -6.82533363E+002                    2.14697427E-012     188.04  <-- SCF
      3  -6.82533363E+002                    5.43788703E-010     199.57  <-- SCF
      4  -6.82533363E+002                    2.98542210E-011     211.05  <-- SCF
      5  -6.82533363E+002                    2.05432810E-013     222.54  <-- SCF
      6  -6.82533363E+002                    3.00093026E-013     233.96  <-- SCF
------------------------------------------------------------------------ <-- SCF
 
Final energy =  -682.5333626484     eV
(energy not corrected for finite basis set)
 
Calculating total energy with cut-off of 1600.000 eV.
------------------------------------------------------------------------ <-- SCF
SCF loop      Energy                           Energy gain       Timer   <-- SCF
                                               per atom          (sec)   <-- SCF
------------------------------------------------------------------------ <-- SCF
Initial  -6.82533363E+002                                        240.42  <-- SCF
      1  -6.82533494E+002                    2.74225712E-006     253.19  <-- SCF
      2  -6.82533494E+002                    2.03217358E-012     264.64  <-- SCF
      3  -6.82533494E+002                    4.92521133E-010     276.07  <-- SCF
      4  -6.82533494E+002                    2.67485602E-011     287.75  <-- SCF
      5  -6.82533494E+002                    1.87910599E-012     299.23  <-- SCF
      6  -6.82533494E+002                   -6.10256287E-013     310.84  <-- SCF
------------------------------------------------------------------------ <-- SCF
 
Final energy =  -682.5334943018     eV
(energy not corrected for finite basis set)
 
 For future reference: finite basis dEtot/dlog(Ecut) =      -0.043536eV
 Total energy corrected for finite basis set =    -682.533494 eV
 
+---------------- MEMORY AND SCRATCH DISK ESTIMATES PER PROCESS --------------+
|                                                     Memory          Disk    |
| Model and support data                               92.9 MB         0.0 MB |
| Electronic energy minimisation requirements         109.2 MB         0.0 MB |
| Geometry minimisation requirements                  139.1 MB         0.0 MB |
|                                               ----------------------------- |
| Approx. total storage required per process          341.3 MB         0.0 MB |
|                                                                             |
| Requirements will fluctuate during execution and may exceed these estimates |
+-----------------------------------------------------------------------------+
 

 ******************************** Symmetrised Forces ********************************
 *                                                                                  *
 *                           Cartesian components (eV/A)                            *
 * -------------------------------------------------------------------------------- *
 *                         x                    y                    z              *
 *                                                                                  *
 * H               1     -0.05340             -0.01739             -0.00210         *
 * H               2      0.05585              0.01727              0.00062         *
 * H               3      0.04624              0.01905              0.00444         *
 * H               4      0.07850             -0.01276             -0.00021         *
 * H               5      0.00045             -0.01580              0.00287         *
 * H               6      0.02880              0.03042              0.00004         *
 * H               7      0.02880             -0.03042              0.00004         *
 * H               8      0.00045              0.01580              0.00287         *
 * H               9      0.07850              0.01276             -0.00021         *
 * H              10      0.04624             -0.01905              0.00444         *
 * H              11      0.05585             -0.01727              0.00062         *
 * H              12     -0.05340              0.01739             -0.00210         *
 * H              13     -0.02880              0.03042              0.00004         *
 * H              14     -0.00045             -0.01580              0.00287         *
 * H              15     -0.07850             -0.01276             -0.00021         *
 * H              16     -0.04624              0.01905              0.00444         *
 * H              17     -0.05585              0.01727              0.00062         *
 * H              18      0.05340             -0.01739             -0.00210         *
 * H              19      0.02880              0.03042             -0.00004         *
 * H              20      0.00045             -0.01580             -0.00287         *
 * H              21      0.07850             -0.01276              0.00021         *
 * H              22      0.04624              0.01905             -0.00444         *
 * H              23      0.05585              0.01727             -0.00062         *
 * H              24     -0.05340             -0.01739              0.00210         *
 * H              25     -0.02880             -0.03042             -0.00004         *
 * H              26     -0.00045              0.01580             -0.00287         *
 * H              27     -0.07850              0.01276              0.00021         *
 * H              28     -0.04624             -0.01905             -0.00444         *
 * H              29     -0.05585             -0.01727             -0.00062         *
 * H              30      0.05340              0.01739              0.00210         *
 * H              31     -0.02880              0.03042             -0.00004         *
 * H              32     -0.00045             -0.01580             -0.00287         *
 * H              33     -0.07850             -0.01276              0.00021         *
 * H              34     -0.04624              0.01905             -0.00444         *
 * H              35     -0.05585              0.01727             -0.00062         *
 * H              36      0.05340             -0.01739              0.00210         *
 * H              37      0.02880             -0.03042             -0.00004         *
 * H              38      0.00045              0.01580             -0.00287         *
 * H              39      0.07850              0.01276              0.00021         *
 * H              40      0.04624             -0.01905             -0.00444         *
 * H              41      0.05585             -0.01727             -0.00062         *
 * H              42     -0.05340              0.01739              0.00210         *
 * H              43     -0.02880             -0.03042              0.00004         *
 * H              44     -0.00045              0.01580              0.00287         *
 * H              45     -0.07850              0.01276             -0.00021         *
 * H              46     -0.04624             -0.01905              0.00444         *
 * H              47     -0.05585             -0.01727              0.00062         *
 * H              48      0.05340              0.01739             -0.00210         *
 *                                                                                  *
 ************************************************************************************

 *********** Symmetrised Stress Tensor ***********
 *                                               *
 *          Cartesian components (GPa)           *
 * --------------------------------------------- *
 *             x             y             z     *
 *                                               *
 *  x   -299.531199     -0.000000      0.000000  *
 *  y     -0.000000   -299.594015      0.000000  *
 *  z      0.000000      0.000000   -299.267691  *
 *                                               *
 *  Pressure:  299.4643                          *
 *                                               *
 *************************************************
 LBFGS: finished iteration     0 with enthalpy= -5.50908424E+002 eV
  
 +-----------+-----------------+-----------------+------------+-----+ <-- LBFGS
 | Parameter |      value      |    tolerance    |    units   | OK? | <-- LBFGS
 +-----------+-----------------+-----------------+------------+-----+ <-- LBFGS
 |  dE/ion   |   0.000000E+000 |   1.000000E-009 |         eV | No  | <-- LBFGS
 |  |F|max   |   7.952796E-002 |   1.000000E-005 |       eV/A | No  | <-- LBFGS
 |  |dR|max  |   0.000000E+000 |   1.000000E-005 |          A | No  | <-- LBFGS
 |   Smax    |   7.323093E-001 |   1.000000E-005 |        GPa | No  | <-- LBFGS
 +-----------+-----------------+-----------------+------------+-----+ <-- LBFGS
  

================================================================================
 Starting LBFGS iteration          1 ...
================================================================================
  
 +------------+-------------+-------------+-----------------+ <-- min LBFGS
 |    Step    |   lambda    |   F.delta'  |    enthalpy     | <-- min LBFGS
 +------------+-------------+-------------+-----------------+ <-- min LBFGS
 |  previous  |    0.000000 |    0.041445 |     -550.908424 | <-- min LBFGS
 +------------+-------------+-------------+-----------------+ <-- min LBFGS
  

--------------------------------------------------------------------------------
 LBFGS: starting iteration         1 with trial guess (lambda=  1.000000)
--------------------------------------------------------------------------------

                           -------------------------------
                                      Unit Cell
                           -------------------------------
        Real Lattice(A)              Reciprocal Lattice(1/A)
     2.8279751     0.0000000     0.0000000        2.221796551  -0.000000000   0.000000000
     0.0000000     4.9190983     0.0000000       -0.000000000   1.277304266   0.000000000
     0.0000000     0.0000000     5.0477900        0.000000000   0.000000000   1.244739843

                       Lattice parameters(A)       Cell Angles
                    a =      2.827975          alpha =   90.000000
                    b =      4.919098          beta  =   90.000000
                    c =      5.047790          gamma =   90.000000

                Current cell volume =            70.220249 A**3

                           -------------------------------
                                     Cell Contents
                           -------------------------------

            xxxxxxxxxxxxxxxxxxxxxxxxxxxxxxxxxxxxxxxxxxxxxxxxxxxxxxxxxxxxxxxxx
            x  Element         Atom        Fractional coordinates of atoms  x
            x                 Number           u          v          w      x
            x---------------------------------------------------------------x
            x  H                 1         0.403806   0.112011   0.010139   x
            x  H                 2         0.584446   0.217001   0.018295   x
            x  H                 3         0.582043   0.556379   0.004493   x
            x  H                 4         0.147826   0.171672   0.249064   x
            x  H                 5         0.315812   0.342185   0.245533   x
            x  H                 6         0.170910   0.487592   0.250547   x
            x  H                 7         0.170910   0.512408   0.750547   x
            x  H                 8         0.315812   0.657815   0.745533   x
            x  H                 9         0.147826   0.828328   0.749064   x
            x  H                10         0.582043   0.443621   0.504493   x
            x  H                11         0.584446   0.782999   0.518295   x
            x  H                12         0.403806   0.887989   0.510139   x
            x  H                13         0.329090   0.987592   0.250547   x
            x  H                14         0.184188   0.842185   0.245533   x
            x  H                15         0.352174   0.671672   0.249064   x
            x  H                16        -0.082043   0.056379   0.004493   x
            x  H                17        -0.084446   0.717001   0.018295   x
            x  H                18         0.096194   0.612011   0.010139   x
            x  H                19         0.670910   0.987592   0.249453   x
            x  H                20         0.815812   0.842185   0.254467   x
            x  H                21         0.647826   0.671672   0.250936   x
            x  H                22         1.082043   0.056379   0.495507   x
            x  H                23         1.084446   0.717001   0.481705   x
            x  H                24         0.903806   0.612011   0.489861   x
            x  H                25         0.829090   0.512408   0.749453   x
            x  H                26         0.684188   0.657815   0.754467   x
            x  H                27         0.852174   0.828328   0.750936   x
            x  H                28         0.417957   0.443621  -0.004493   x
            x  H                29         0.415554   0.782999   0.981705   x
            x  H                30         0.596194   0.887989   0.989861   x
            x  H                31         0.829090   0.487592   0.249453   x
            x  H                32         0.684188   0.342185   0.254467   x
            x  H                33         0.852174   0.171672   0.250936   x
            x  H                34         0.417957   0.556379   0.495507   x
            x  H                35         0.415554   0.217001   0.481705   x
            x  H                36         0.596194   0.112011   0.489861   x
            x  H                37         0.670910   0.012408   0.749453   x
            x  H                38         0.815812   0.157815   0.754467   x
            x  H                39         0.647826   0.328328   0.750936   x
            x  H                40         0.082043  -0.056379  -0.004493   x
            x  H                41         1.084446   0.282999   0.981705   x
            x  H                42         0.903806   0.387989   0.989861   x
            x  H                43         0.329090   0.012408   0.750547   x
            x  H                44         0.184188   0.157815   0.745533   x
            x  H                45         0.352174   0.328328   0.749064   x
            x  H                46         0.917957  -0.056379   0.504493   x
            x  H                47        -0.084446   0.282999   0.518295   x
            x  H                48         0.096194   0.387989   0.510139   x
            xxxxxxxxxxxxxxxxxxxxxxxxxxxxxxxxxxxxxxxxxxxxxxxxxxxxxxxxxxxxxxxxx


------------------------------------------------------------------------ <-- SCF
SCF loop      Energy                           Energy gain       Timer   <-- SCF
                                               per atom          (sec)   <-- SCF
------------------------------------------------------------------------ <-- SCF
Initial  -6.82263568E+002                                        328.21  <-- SCF
      1  -6.82393756E+002                    2.71224461E-003     340.99  <-- SCF
      2  -6.82394511E+002                    1.57414872E-005     357.78  <-- SCF
      3  -6.82383674E+002                   -2.25779193E-004     374.09  <-- SCF
      4  -6.82383386E+002                   -6.00076924E-006     390.91  <-- SCF
      5  -6.82383385E+002                   -2.24657554E-008     407.23  <-- SCF
      6  -6.82383385E+002                   -5.18470116E-010     423.91  <-- SCF
      7  -6.82383385E+002                    4.99483694E-013     435.53  <-- SCF
      8  -6.82383385E+002                    4.43090374E-013     447.04  <-- SCF
------------------------------------------------------------------------ <-- SCF
 
Final energy =  -682.3833848045     eV
(energy not corrected for finite basis set)
 

 ******************************** Symmetrised Forces ********************************
 *                                                                                  *
 *                           Cartesian components (eV/A)                            *
 * -------------------------------------------------------------------------------- *
 *                         x                    y                    z              *
 *                                                                                  *
 * H               1      0.16725              0.18253             -0.00288         *
 * H               2     -0.16415             -0.18974             -0.04216         *
 * H               3     -0.12352             -0.16101             -0.00987         *
 * H               4     -0.10775              0.00229              0.00079         *
 * H               5     -0.00654             -0.02784             -0.00082         *
 * H               6     -0.02079              0.02731             -0.00252         *
 * H               7     -0.02079             -0.02731             -0.00252         *
 * H               8     -0.00654              0.02784             -0.00082         *
 * H               9     -0.10775             -0.00229              0.00079         *
 * H              10     -0.12352              0.16101             -0.00987         *
 * H              11     -0.16415              0.18974             -0.04216         *
 * H              12      0.16725             -0.18253             -0.00288         *
 * H              13      0.02079              0.02731             -0.00252         *
 * H              14      0.00654             -0.02784             -0.00082         *
 * H              15      0.10775              0.00229              0.00079         *
 * H              16      0.12352             -0.16101             -0.00987         *
 * H              17      0.16415             -0.18974             -0.04216         *
 * H              18     -0.16725              0.18253             -0.00288         *
 * H              19     -0.02079              0.02731              0.00252         *
 * H              20     -0.00654             -0.02784              0.00082         *
 * H              21     -0.10775              0.00229             -0.00079         *
 * H              22     -0.12352             -0.16101              0.00987         *
 * H              23     -0.16415             -0.18974              0.04216         *
 * H              24      0.16725              0.18253              0.00288         *
 * H              25      0.02079             -0.02731              0.00252         *
 * H              26      0.00654              0.02784              0.00082         *
 * H              27      0.10775             -0.00229             -0.00079         *
 * H              28      0.12352              0.16101              0.00987         *
 * H              29      0.16415              0.18974              0.04216         *
 * H              30     -0.16725             -0.18253              0.00288         *
 * H              31      0.02079              0.02731              0.00252         *
 * H              32      0.00654             -0.02784              0.00082         *
 * H              33      0.10775              0.00229             -0.00079         *
 * H              34      0.12352             -0.16101              0.00987         *
 * H              35      0.16415             -0.18974              0.04216         *
 * H              36     -0.16725              0.18253              0.00288         *
 * H              37     -0.02079             -0.02731              0.00252         *
 * H              38     -0.00654              0.02784              0.00082         *
 * H              39     -0.10775             -0.00229             -0.00079         *
 * H              40     -0.12352              0.16101              0.00987         *
 * H              41     -0.16415              0.18974              0.04216         *
 * H              42      0.16725             -0.18253              0.00288         *
 * H              43      0.02079             -0.02731             -0.00252         *
 * H              44      0.00654              0.02784             -0.00082         *
 * H              45      0.10775             -0.00229              0.00079         *
 * H              46      0.12352              0.16101             -0.00987         *
 * H              47      0.16415              0.18974             -0.04216         *
 * H              48     -0.16725             -0.18253             -0.00288         *
 *                                                                                  *
 ************************************************************************************

 *********** Symmetrised Stress Tensor ***********
 *                                               *
 *          Cartesian components (GPa)           *
 * --------------------------------------------- *
 *             x             y             z     *
 *                                               *
 *  x   -296.082807      0.000000      0.000000  *
 *  y      0.000000   -297.523449      0.000000  *
 *  z      0.000000      0.000000   -300.849702  *
 *                                               *
 *  Pressure:  298.1520                          *
 *                                               *
 *************************************************
  
 +------------+-------------+-------------+-----------------+ <-- min LBFGS
 |    Step    |   lambda    |   F.delta'  |    enthalpy     | <-- min LBFGS
 +------------+-------------+-------------+-----------------+ <-- min LBFGS
 |  previous  |    0.000000 |    0.041445 |     -550.908424 | <-- min LBFGS
 | trial step |    1.000000 |   -0.094078 |     -550.899288 | <-- min LBFGS
 +------------+-------------+-------------+-----------------+ <-- min LBFGS
  

--------------------------------------------------------------------------------
 LBFGS: improving iteration         1 with line minimization (lambda=  0.305818)
--------------------------------------------------------------------------------

                           -------------------------------
                                      Unit Cell
                           -------------------------------
        Real Lattice(A)              Reciprocal Lattice(1/A)
     2.8285888     0.0000000     0.0000000        2.221314474  -0.000000000   0.000000000
     0.0000000     4.9200228     0.0000000       -0.000000000   1.277064260   0.000000000
     0.0000000     0.0000000     5.0495015        0.000000000   0.000000000   1.244317933

                       Lattice parameters(A)       Cell Angles
                    a =      2.828589          alpha =   90.000000
                    b =      4.920023          beta  =   90.000000
                    c =      5.049502          gamma =   90.000000

                Current cell volume =            70.272507 A**3

                           -------------------------------
                                     Cell Contents
                           -------------------------------

            xxxxxxxxxxxxxxxxxxxxxxxxxxxxxxxxxxxxxxxxxxxxxxxxxxxxxxxxxxxxxxxxx
            x  Element         Atom        Fractional coordinates of atoms  x
            x                 Number           u          v          w      x
            x---------------------------------------------------------------x
            x  H                 1         0.405078   0.112249   0.010167   x
            x  H                 2         0.583117   0.216764   0.018287   x
            x  H                 3         0.580942   0.556118   0.004434   x
            x  H                 4         0.145958   0.171846   0.249066   x
            x  H                 5         0.315801   0.342401   0.245495   x
            x  H                 6         0.170225   0.487176   0.250547   x
            x  H                 7         0.170225   0.512824   0.750547   x
            x  H                 8         0.315801   0.657599   0.745495   x
            x  H                 9         0.145958   0.828154   0.749066   x
            x  H                10         0.580942   0.443882   0.504434   x
            x  H                11         0.583117   0.783236   0.518287   x
            x  H                12         0.405078   0.887751   0.510167   x
            x  H                13         0.329775   0.987176   0.250547   x
            x  H                14         0.184199   0.842401   0.245495   x
            x  H                15         0.354042   0.671846   0.249066   x
            x  H                16        -0.080942   0.056118   0.004434   x
            x  H                17        -0.083117   0.716764   0.018287   x
            x  H                18         0.094922   0.612249   0.010167   x
            x  H                19         0.670225   0.987176   0.249453   x
            x  H                20         0.815801   0.842401   0.254505   x
            x  H                21         0.645958   0.671846   0.250934   x
            x  H                22         1.080942   0.056118   0.495566   x
            x  H                23         1.083117   0.716764   0.481713   x
            x  H                24         0.905078   0.612249   0.489833   x
            x  H                25         0.829775   0.512824   0.749453   x
            x  H                26         0.684199   0.657599   0.754505   x
            x  H                27         0.854042   0.828154   0.750934   x
            x  H                28         0.419058   0.443882  -0.004434   x
            x  H                29         0.416883   0.783236   0.981713   x
            x  H                30         0.594922   0.887751   0.989833   x
            x  H                31         0.829775   0.487176   0.249453   x
            x  H                32         0.684199   0.342401   0.254505   x
            x  H                33         0.854042   0.171846   0.250934   x
            x  H                34         0.419058   0.556118   0.495566   x
            x  H                35         0.416883   0.216764   0.481713   x
            x  H                36         0.594922   0.112249   0.489833   x
            x  H                37         0.670225   0.012824   0.749453   x
            x  H                38         0.815801   0.157599   0.754505   x
            x  H                39         0.645958   0.328154   0.750934   x
            x  H                40         0.080942  -0.056118  -0.004434   x
            x  H                41         1.083117   0.283236   0.981713   x
            x  H                42         0.905078   0.387751   0.989833   x
            x  H                43         0.329775   0.012824   0.750547   x
            x  H                44         0.184199   0.157599   0.745495   x
            x  H                45         0.354042   0.328154   0.749066   x
            x  H                46         0.919058  -0.056118   0.504434   x
            x  H                47        -0.083117   0.283236   0.518287   x
            x  H                48         0.094922   0.387751   0.510167   x
            xxxxxxxxxxxxxxxxxxxxxxxxxxxxxxxxxxxxxxxxxxxxxxxxxxxxxxxxxxxxxxxxx


------------------------------------------------------------------------ <-- SCF
SCF loop      Energy                           Energy gain       Timer   <-- SCF
                                               per atom          (sec)   <-- SCF
------------------------------------------------------------------------ <-- SCF
Initial  -6.82434783E+002                                        464.51  <-- SCF
      1  -6.82497397E+002                    1.30445130E-003     477.24  <-- SCF
      2  -6.82497749E+002                    7.33203810E-006     493.74  <-- SCF
      3  -6.82492538E+002                   -1.08552301E-004     509.90  <-- SCF
      4  -6.82492399E+002                   -2.91151578E-006     526.72  <-- SCF
      5  -6.82492398E+002                   -1.08767811E-008     542.94  <-- SCF
      6  -6.82492398E+002                   -2.33440149E-010     559.64  <-- SCF
      7  -6.82492398E+002                    1.10772593E-013     571.18  <-- SCF
      8  -6.82492398E+002                    8.51941946E-013     582.69  <-- SCF
------------------------------------------------------------------------ <-- SCF
 
Final energy =  -682.4923981532     eV
(energy not corrected for finite basis set)
 

 ******************************** Symmetrised Forces ********************************
 *                                                                                  *
 *                           Cartesian components (eV/A)                            *
 * -------------------------------------------------------------------------------- *
 *                         x                    y                    z              *
 *                                                                                  *
 * H               1      0.01574              0.04601             -0.00217         *
 * H               2     -0.01310             -0.04832             -0.01264         *
 * H               3     -0.00686             -0.03787             -0.00003         *
 * H               4      0.01832             -0.00801              0.00014         *
 * H               5     -0.00183             -0.01951              0.00174         *
 * H               6      0.01323              0.02935             -0.00073         *
 * H               7      0.01323             -0.02935             -0.00073         *
 * H               8     -0.00183              0.01951              0.00174         *
 * H               9      0.01832              0.00801              0.00014         *
 * H              10     -0.00686              0.03787             -0.00003         *
 * H              11     -0.01310              0.04832             -0.01264         *
 * H              12      0.01574             -0.04601             -0.00217         *
 * H              13     -0.01323              0.02935             -0.00073         *
 * H              14      0.00183             -0.01951              0.00174         *
 * H              15     -0.01832             -0.00801              0.00014         *
 * H              16      0.00686             -0.03787             -0.00003         *
 * H              17      0.01310             -0.04832             -0.01264         *
 * H              18     -0.01574              0.04601             -0.00217         *
 * H              19      0.01323              0.02935              0.00073         *
 * H              20     -0.00183             -0.01951             -0.00174         *
 * H              21      0.01832             -0.00801             -0.00014         *
 * H              22     -0.00686             -0.03787              0.00003         *
 * H              23     -0.01310             -0.04832              0.01264         *
 * H              24      0.01574              0.04601              0.00217         *
 * H              25     -0.01323             -0.02935              0.00073         *
 * H              26      0.00183              0.01951             -0.00174         *
 * H              27     -0.01832              0.00801             -0.00014         *
 * H              28      0.00686              0.03787              0.00003         *
 * H              29      0.01310              0.04832              0.01264         *
 * H              30     -0.01574             -0.04601              0.00217         *
 * H              31     -0.01323              0.02935              0.00073         *
 * H              32      0.00183             -0.01951             -0.00174         *
 * H              33     -0.01832             -0.00801             -0.00014         *
 * H              34      0.00686             -0.03787              0.00003         *
 * H              35      0.01310             -0.04832              0.01264         *
 * H              36     -0.01574              0.04601              0.00217         *
 * H              37      0.01323             -0.02935              0.00073         *
 * H              38     -0.00183              0.01951             -0.00174         *
 * H              39      0.01832              0.00801             -0.00014         *
 * H              40     -0.00686              0.03787              0.00003         *
 * H              41     -0.01310              0.04832              0.01264         *
 * H              42      0.01574             -0.04601              0.00217         *
 * H              43     -0.01323             -0.02935             -0.00073         *
 * H              44      0.00183              0.01951              0.00174         *
 * H              45     -0.01832              0.00801              0.00014         *
 * H              46      0.00686              0.03787             -0.00003         *
 * H              47      0.01310              0.04832             -0.01264         *
 * H              48     -0.01574             -0.04601             -0.00217         *
 *                                                                                  *
 ************************************************************************************

 *********** Symmetrised Stress Tensor ***********
 *                                               *
 *          Cartesian components (GPa)           *
 * --------------------------------------------- *
 *             x             y             z     *
 *                                               *
 *  x   -298.453100      0.000000      0.000000  *
 *  y      0.000000   -298.937932      0.000000  *
 *  z      0.000000      0.000000   -299.754177  *
 *                                               *
 *  Pressure:  299.0484                          *
 *                                               *
 *************************************************
  
 +------------+-------------+-------------+-----------------+ <-- min LBFGS
 |    Step    |   lambda    |   F.delta'  |    enthalpy     | <-- min LBFGS
 +------------+-------------+-------------+-----------------+ <-- min LBFGS
 |  previous  |    0.000000 |    0.041445 |     -550.908424 | <-- min LBFGS
 | trial step |    1.000000 |   -0.094078 |     -550.899288 | <-- min LBFGS
 |  line step |    0.305818 |   -0.001440 |     -550.910450 | <-- min LBFGS
 +------------+-------------+-------------+-----------------+ <-- min LBFGS
  
 LBFGS: finished iteration     1 with enthalpy= -5.50910450E+002 eV
  
 +-----------+-----------------+-----------------+------------+-----+ <-- LBFGS
 | Parameter |      value      |    tolerance    |    units   | OK? | <-- LBFGS
 +-----------+-----------------+-----------------+------------+-----+ <-- LBFGS
 |  dE/ion   |   4.220828E-005 |   1.000000E-009 |         eV | No  | <-- LBFGS
 |  |F|max   |   5.163308E-002 |   1.000000E-005 |       eV/A | No  | <-- LBFGS
 |  |dR|max  |   2.358946E-003 |   1.000000E-005 |          A | No  | <-- LBFGS
 |   Smax    |   1.546900E+000 |   1.000000E-005 |        GPa | No  | <-- LBFGS
 +-----------+-----------------+-----------------+------------+-----+ <-- LBFGS
  

================================================================================
 Starting LBFGS iteration          2 ...
================================================================================
  
 +------------+-------------+-------------+-----------------+ <-- min LBFGS
 |    Step    |   lambda    |   F.delta'  |    enthalpy     | <-- min LBFGS
 +------------+-------------+-------------+-----------------+ <-- min LBFGS
 |  previous  |    0.000000 |    0.030745 |     -550.910450 | <-- min LBFGS
 +------------+-------------+-------------+-----------------+ <-- min LBFGS
  

--------------------------------------------------------------------------------
 LBFGS: starting iteration         2 with trial guess (lambda=  1.000000)
--------------------------------------------------------------------------------

                           -------------------------------
                                      Unit Cell
                           -------------------------------
        Real Lattice(A)              Reciprocal Lattice(1/A)
     2.8253006     0.0000000     0.0000000        2.223899752  -0.000000000   0.000000000
     0.0000000     4.9159495     0.0000000       -0.000000000   1.278122428   0.000000000
     0.0000000     0.0000000     5.0473925        0.000000000   0.000000000   1.244837866

                       Lattice parameters(A)       Cell Angles
                    a =      2.825301          alpha =   90.000000
                    b =      4.915949          beta  =   90.000000
                    c =      5.047392          gamma =   90.000000

                Current cell volume =            70.103411 A**3

                           -------------------------------
                                     Cell Contents
                           -------------------------------

            xxxxxxxxxxxxxxxxxxxxxxxxxxxxxxxxxxxxxxxxxxxxxxxxxxxxxxxxxxxxxxxxx
            x  Element         Atom        Fractional coordinates of atoms  x
            x                 Number           u          v          w      x
            x---------------------------------------------------------------x
            x  H                 1         0.404627   0.112943   0.010105   x
            x  H                 2         0.583700   0.216025   0.018059   x
            x  H                 3         0.581557   0.555596   0.004479   x
            x  H                 4         0.147994   0.171560   0.249067   x
            x  H                 5         0.315748   0.341864   0.245557   x
            x  H                 6         0.171188   0.488053   0.250533   x
            x  H                 7         0.171188   0.511947   0.750533   x
            x  H                 8         0.315748   0.658136   0.745557   x
            x  H                 9         0.147994   0.828440   0.749067   x
            x  H                10         0.581557   0.444404   0.504479   x
            x  H                11         0.583700   0.783975   0.518059   x
            x  H                12         0.404627   0.887057   0.510105   x
            x  H                13         0.328812   0.988053   0.250533   x
            x  H                14         0.184252   0.841864   0.245557   x
            x  H                15         0.352006   0.671560   0.249067   x
            x  H                16        -0.081557   0.055596   0.004479   x
            x  H                17        -0.083700   0.716025   0.018059   x
            x  H                18         0.095373   0.612943   0.010105   x
            x  H                19         0.671188   0.988053   0.249467   x
            x  H                20         0.815748   0.841864   0.254443   x
            x  H                21         0.647994   0.671560   0.250933   x
            x  H                22         1.081557   0.055596   0.495521   x
            x  H                23         1.083700   0.716025   0.481941   x
            x  H                24         0.904627   0.612943   0.489895   x
            x  H                25         0.828812   0.511947   0.749467   x
            x  H                26         0.684252   0.658136   0.754443   x
            x  H                27         0.852006   0.828440   0.750933   x
            x  H                28         0.418443   0.444404  -0.004479   x
            x  H                29         0.416300   0.783975   0.981941   x
            x  H                30         0.595373   0.887057   0.989895   x
            x  H                31         0.828812   0.488053   0.249467   x
            x  H                32         0.684252   0.341864   0.254443   x
            x  H                33         0.852006   0.171560   0.250933   x
            x  H                34         0.418443   0.555596   0.495521   x
            x  H                35         0.416300   0.216025   0.481941   x
            x  H                36         0.595373   0.112943   0.489895   x
            x  H                37         0.671188   0.011947   0.749467   x
            x  H                38         0.815748   0.158136   0.754443   x
            x  H                39         0.647994   0.328440   0.750933   x
            x  H                40         0.081557  -0.055596  -0.004479   x
            x  H                41         1.083700   0.283975   0.981941   x
            x  H                42         0.904627   0.387057   0.989895   x
            x  H                43         0.328812   0.011947   0.750533   x
            x  H                44         0.184252   0.158136   0.745557   x
            x  H                45         0.352006   0.328440   0.749067   x
            x  H                46         0.918443  -0.055596   0.504479   x
            x  H                47        -0.083700   0.283975   0.518059   x
            x  H                48         0.095373   0.387057   0.510105   x
            xxxxxxxxxxxxxxxxxxxxxxxxxxxxxxxxxxxxxxxxxxxxxxxxxxxxxxxxxxxxxxxxx


------------------------------------------------------------------------ <-- SCF
SCF loop      Energy                           Energy gain       Timer   <-- SCF
                                               per atom          (sec)   <-- SCF
------------------------------------------------------------------------ <-- SCF
Initial  -6.82103606E+002                                        600.03  <-- SCF
      1  -6.82183294E+002                    1.66015757E-003     612.78  <-- SCF
      2  -6.82183813E+002                    1.08156187E-005     628.99  <-- SCF
      3  -6.82175447E+002                   -1.74275716E-004     645.13  <-- SCF
      4  -6.82175296E+002                   -3.14572366E-006     661.91  <-- SCF
      5  -6.82175296E+002                   -1.19121604E-008     677.99  <-- SCF
      6  -6.82175296E+002                   -4.17268275E-010     694.62  <-- SCF
      7  -6.82175296E+002                   -1.76027721E-012     706.51  <-- SCF
      8  -6.82175296E+002                    9.54658351E-013     718.00  <-- SCF
------------------------------------------------------------------------ <-- SCF
 
Final energy =  -682.1752958624     eV
(energy not corrected for finite basis set)
 

 ******************************** Symmetrised Forces ********************************
 *                                                                                  *
 *                           Cartesian components (eV/A)                            *
 * -------------------------------------------------------------------------------- *
 *                         x                    y                    z              *
 *                                                                                  *
 * H               1     -0.05911             -0.04879             -0.03361         *
 * H               2      0.06171              0.05186             -0.02971         *
 * H               3      0.03175              0.03154              0.00060         *
 * H               4     -0.09358              0.01083              0.00139         *
 * H               5     -0.00436              0.00605              0.00396         *
 * H               6     -0.03229             -0.01659             -0.00256         *
 * H               7     -0.03229              0.01659             -0.00256         *
 * H               8     -0.00436             -0.00605              0.00396         *
 * H               9     -0.09358             -0.01083              0.00139         *
 * H              10      0.03175             -0.03154              0.00060         *
 * H              11      0.06171             -0.05186             -0.02971         *
 * H              12     -0.05911              0.04879             -0.03361         *
 * H              13      0.03229             -0.01659             -0.00256         *
 * H              14      0.00436              0.00605              0.00396         *
 * H              15      0.09358              0.01083              0.00139         *
 * H              16     -0.03175              0.03154              0.00060         *
 * H              17     -0.06171              0.05186             -0.02971         *
 * H              18      0.05911             -0.04879             -0.03361         *
 * H              19     -0.03229             -0.01659              0.00256         *
 * H              20     -0.00436              0.00605             -0.00396         *
 * H              21     -0.09358              0.01083             -0.00139         *
 * H              22      0.03175              0.03154             -0.00060         *
 * H              23      0.06171              0.05186              0.02971         *
 * H              24     -0.05911             -0.04879              0.03361         *
 * H              25      0.03229              0.01659              0.00256         *
 * H              26      0.00436             -0.00605             -0.00396         *
 * H              27      0.09358             -0.01083             -0.00139         *
 * H              28     -0.03175             -0.03154             -0.00060         *
 * H              29     -0.06171             -0.05186              0.02971         *
 * H              30      0.05911              0.04879              0.03361         *
 * H              31      0.03229             -0.01659              0.00256         *
 * H              32      0.00436              0.00605             -0.00396         *
 * H              33      0.09358              0.01083             -0.00139         *
 * H              34     -0.03175              0.03154             -0.00060         *
 * H              35     -0.06171              0.05186              0.02971         *
 * H              36      0.05911             -0.04879              0.03361         *
 * H              37     -0.03229              0.01659              0.00256         *
 * H              38     -0.00436             -0.00605             -0.00396         *
 * H              39     -0.09358             -0.01083             -0.00139         *
 * H              40      0.03175             -0.03154             -0.00060         *
 * H              41      0.06171             -0.05186              0.02971         *
 * H              42     -0.05911              0.04879              0.03361         *
 * H              43      0.03229              0.01659             -0.00256         *
 * H              44      0.00436             -0.00605              0.00396         *
 * H              45      0.09358             -0.01083              0.00139         *
 * H              46     -0.03175             -0.03154              0.00060         *
 * H              47     -0.06171             -0.05186             -0.02971         *
 * H              48      0.05911              0.04879             -0.03361         *
 *                                                                                  *
 ************************************************************************************

 *********** Symmetrised Stress Tensor ***********
 *                                               *
 *          Cartesian components (GPa)           *
 * --------------------------------------------- *
 *             x             y             z     *
 *                                               *
 *  x   -300.076858      0.000000      0.000000  *
 *  y      0.000000   -301.136567      0.000000  *
 *  z      0.000000      0.000000   -301.536608  *
 *                                               *
 *  Pressure:  300.9167                          *
 *                                               *
 *************************************************
  
 +------------+-------------+-------------+-----------------+ <-- min LBFGS
 |    Step    |   lambda    |   F.delta'  |    enthalpy     | <-- min LBFGS
 +------------+-------------+-------------+-----------------+ <-- min LBFGS
 |  previous  |    0.000000 |    0.030745 |     -550.910450 | <-- min LBFGS
 | trial step |    1.000000 |   -0.034296 |     -550.909972 | <-- min LBFGS
 +------------+-------------+-------------+-----------------+ <-- min LBFGS
  

--------------------------------------------------------------------------------
 LBFGS: improving iteration         2 with line minimization (lambda=  0.472700)
--------------------------------------------------------------------------------

                           -------------------------------
                                      Unit Cell
                           -------------------------------
        Real Lattice(A)              Reciprocal Lattice(1/A)
     2.8270345     0.0000000     0.0000000        2.222535786  -0.000000000   0.000000000
     0.0000000     4.9180974     0.0000000       -0.000000000   1.277564238   0.000000000
     0.0000000     0.0000000     5.0485046        0.000000000   0.000000000   1.244563651

                       Lattice parameters(A)       Cell Angles
                    a =      2.827034          alpha =   90.000000
                    b =      4.918097          beta  =   90.000000
                    c =      5.048505          gamma =   90.000000

                Current cell volume =            70.192544 A**3

                           -------------------------------
                                     Cell Contents
                           -------------------------------

            xxxxxxxxxxxxxxxxxxxxxxxxxxxxxxxxxxxxxxxxxxxxxxxxxxxxxxxxxxxxxxxxx
            x  Element         Atom        Fractional coordinates of atoms  x
            x                 Number           u          v          w      x
            x---------------------------------------------------------------x
            x  H                 1         0.404864   0.112577   0.010137   x
            x  H                 2         0.583392   0.216415   0.018179   x
            x  H                 3         0.581233   0.555871   0.004455   x
            x  H                 4         0.146920   0.171711   0.249067   x
            x  H                 5         0.315776   0.342147   0.245524   x
            x  H                 6         0.170680   0.487591   0.250540   x
            x  H                 7         0.170680   0.512409   0.750540   x
            x  H                 8         0.315776   0.657853   0.745524   x
            x  H                 9         0.146920   0.828289   0.749067   x
            x  H                10         0.581233   0.444129   0.504455   x
            x  H                11         0.583392   0.783585   0.518179   x
            x  H                12         0.404864   0.887423   0.510137   x
            x  H                13         0.329320   0.987591   0.250540   x
            x  H                14         0.184224   0.842147   0.245524   x
            x  H                15         0.353080   0.671711   0.249067   x
            x  H                16        -0.081233   0.055871   0.004455   x
            x  H                17        -0.083392   0.716415   0.018179   x
            x  H                18         0.095136   0.612577   0.010137   x
            x  H                19         0.670680   0.987591   0.249460   x
            x  H                20         0.815776   0.842147   0.254476   x
            x  H                21         0.646920   0.671711   0.250933   x
            x  H                22         1.081233   0.055871   0.495545   x
            x  H                23         1.083392   0.716415   0.481821   x
            x  H                24         0.904864   0.612577   0.489863   x
            x  H                25         0.829320   0.512409   0.749460   x
            x  H                26         0.684224   0.657853   0.754476   x
            x  H                27         0.853080   0.828289   0.750933   x
            x  H                28         0.418767   0.444129  -0.004455   x
            x  H                29         0.416608   0.783585   0.981821   x
            x  H                30         0.595136   0.887423   0.989863   x
            x  H                31         0.829320   0.487591   0.249460   x
            x  H                32         0.684224   0.342147   0.254476   x
            x  H                33         0.853080   0.171711   0.250933   x
            x  H                34         0.418767   0.555871   0.495545   x
            x  H                35         0.416608   0.216415   0.481821   x
            x  H                36         0.595136   0.112577   0.489863   x
            x  H                37         0.670680   0.012409   0.749460   x
            x  H                38         0.815776   0.157853   0.754476   x
            x  H                39         0.646920   0.328289   0.750933   x
            x  H                40         0.081233  -0.055871  -0.004455   x
            x  H                41         1.083392   0.283585   0.981821   x
            x  H                42         0.904864   0.387423   0.989863   x
            x  H                43         0.329320   0.012409   0.750540   x
            x  H                44         0.184224   0.157853   0.745524   x
            x  H                45         0.353080   0.328289   0.749067   x
            x  H                46         0.918767  -0.055871   0.504455   x
            x  H                47        -0.083392   0.283585   0.518179   x
            x  H                48         0.095136   0.387423   0.510137   x
            xxxxxxxxxxxxxxxxxxxxxxxxxxxxxxxxxxxxxxxxxxxxxxxxxxxxxxxxxxxxxxxxx


------------------------------------------------------------------------ <-- SCF
SCF loop      Energy                           Energy gain       Timer   <-- SCF
                                               per atom          (sec)   <-- SCF
------------------------------------------------------------------------ <-- SCF
Initial  -6.82324361E+002                                        735.29  <-- SCF
      1  -6.82346519E+002                    4.61617223E-004     748.22  <-- SCF
      2  -6.82346662E+002                    2.97882753E-006     764.51  <-- SCF
      3  -6.82344337E+002                   -4.84214766E-005     780.72  <-- SCF
      4  -6.82344295E+002                   -8.80402420E-007     797.66  <-- SCF
      5  -6.82344295E+002                   -3.39166749E-009     814.07  <-- SCF
      6  -6.82344295E+002                   -1.14228698E-010     830.33  <-- SCF
      7  -6.82344295E+002                   -4.49132515E-013     841.92  <-- SCF
      8  -6.82344295E+002                    1.16814735E-013     853.39  <-- SCF
------------------------------------------------------------------------ <-- SCF
 
Final energy =  -682.3442949377     eV
(energy not corrected for finite basis set)
 

 ******************************** Symmetrised Forces ********************************
 *                                                                                  *
 *                           Cartesian components (eV/A)                            *
 * -------------------------------------------------------------------------------- *
 *                         x                    y                    z              *
 *                                                                                  *
 * H               1     -0.01929              0.00107             -0.01702         *
 * H               2      0.02194             -0.00084             -0.02066         *
 * H               3      0.01126             -0.00487              0.00027         *
 * H               4     -0.03649              0.00105              0.00076         *
 * H               5     -0.00340             -0.00735              0.00279         *
 * H               6     -0.00845              0.00740             -0.00160         *
 * H               7     -0.00845             -0.00740             -0.00160         *
 * H               8     -0.00340              0.00735              0.00279         *
 * H               9     -0.03649             -0.00105              0.00076         *
 * H              10      0.01126              0.00487              0.00027         *
 * H              11      0.02194              0.00084             -0.02066         *
 * H              12     -0.01929             -0.00107             -0.01702         *
 * H              13      0.00845              0.00740             -0.00160         *
 * H              14      0.00340             -0.00735              0.00279         *
 * H              15      0.03649              0.00105              0.00076         *
 * H              16     -0.01126             -0.00487              0.00027         *
 * H              17     -0.02194             -0.00084             -0.02066         *
 * H              18      0.01929              0.00107             -0.01702         *
 * H              19     -0.00845              0.00740              0.00160         *
 * H              20     -0.00340             -0.00735             -0.00279         *
 * H              21     -0.03649              0.00105             -0.00076         *
 * H              22      0.01126             -0.00487             -0.00027         *
 * H              23      0.02194             -0.00084              0.02066         *
 * H              24     -0.01929              0.00107              0.01702         *
 * H              25      0.00845             -0.00740              0.00160         *
 * H              26      0.00340              0.00735             -0.00279         *
 * H              27      0.03649             -0.00105             -0.00076         *
 * H              28     -0.01126              0.00487             -0.00027         *
 * H              29     -0.02194              0.00084              0.02066         *
 * H              30      0.01929             -0.00107              0.01702         *
 * H              31      0.00845              0.00740              0.00160         *
 * H              32      0.00340             -0.00735             -0.00279         *
 * H              33      0.03649              0.00105             -0.00076         *
 * H              34     -0.01126             -0.00487             -0.00027         *
[...]
              H 16 -- H 21                   0.03        2.38568
              H 15 -- H 22                   0.03        2.38568
              H 11 -- H 48                   0.01        2.39365
              H 29 -- H 42                   0.01        2.39365
              H 1  -- H 17                   0.01        2.39365
              H 23 -- H 36                   0.01        2.39365
              H 12 -- H 47                   0.01        2.39365
              H 2  -- H 18                   0.01        2.39365
              H 24 -- H 35                   0.01        2.39365
              H 30 -- H 41                   0.01        2.39365
              H 34 -- H 44                   0.00        2.41343
              H 3  -- H 38                   0.00        2.41343
              H 14 -- H 28                   0.00        2.41343
              H 10 -- H 20                   0.00        2.41343
              H 5  -- H 40                   0.00        2.41343
              H 32 -- H 46                   0.00        2.41343
              H 8  -- H 22                   0.00        2.41343
              H 16 -- H 26                   0.00        2.41343
              H 11 -- H 29                   0.04        2.41721
              H 41 -- H 47                   0.04        2.41721
              H 2  -- H 35                   0.04        2.41721
              H 17 -- H 23                   0.04        2.41721
              H 12 -- H 29                   0.04        2.44571
              H 11 -- H 30                   0.04        2.44571
              H 17 -- H 24                   0.04        2.44571
              H 18 -- H 23                   0.04        2.44571
              H 2  -- H 36                   0.04        2.44571
              H 42 -- H 47                   0.04        2.44571
              H 41 -- H 48                   0.04        2.44571
              H 1  -- H 35                   0.04        2.44571
              H 23 -- H 45                   0.04        2.44978
              H 11 -- H 33                   0.04        2.44978
              H 4  -- H 29                   0.04        2.44978
              H 17 -- H 39                   0.04        2.44978
              H 15 -- H 41                   0.04        2.44978
              H 21 -- H 47                   0.04        2.44978
              H 9  -- H 35                   0.04        2.44978
              H 2  -- H 27                   0.04        2.44978
              H 18 -- H 43                   0.02        2.45165
              H 6  -- H 12                   0.02        2.45165
              H 24 -- H 37                   0.02        2.45165
              H 30 -- H 31                   0.02        2.45165
              H 1  -- H 7                    0.02        2.45165
              H 25 -- H 36                   0.02        2.45165
              H 13 -- H 48                   0.02        2.45165
              H 19 -- H 42                   0.02        2.45165
              H 29 -- H 38                   0.00        2.45837
              H 8  -- H 47                   0.00        2.45837
              H 11 -- H 44                   0.00        2.45837
              H 5  -- H 17                   0.00        2.45837
              H 26 -- H 41                   0.00        2.45837
              H 23 -- H 32                   0.00        2.45837
              H 2  -- H 14                   0.00        2.45837
              H 20 -- H 35                   0.00        2.45837
              H 42 -- H 48                   0.04        2.47654
              H 12 -- H 30                   0.04        2.47654
              H 18 -- H 24                   0.04        2.47654
              H 1  -- H 36                   0.04        2.47654
              H 28 -- H 43                   0.03        2.47733
              H 10 -- H 37                   0.03        2.47733
              H 25 -- H 46                   0.03        2.47733
              H 7  -- H 40                   0.03        2.47733
              H 16 -- H 31                   0.03        2.47733
              H 6  -- H 22                   0.03        2.47733
              H 13 -- H 34                   0.03        2.47733
              H 3  -- H 19                   0.03        2.47733
              H 20 -- H 32                  -0.08        2.48678
              H 5  -- H 14                  -0.08        2.48678
              H 26 -- H 38                  -0.08        2.48678
              H 8  -- H 44                  -0.08        2.48678
              H 27 -- H 42                   0.05        2.48910
              H 9  -- H 48                   0.05        2.48910
              H 21 -- H 36                   0.05        2.48910
              H 1  -- H 15                   0.05        2.48910
              H 30 -- H 39                   0.05        2.48910
              H 12 -- H 45                   0.05        2.48910
              H 24 -- H 33                   0.05        2.48910
              H 4  -- H 18                   0.05        2.48910
              H 7  -- H 43                  -0.06        2.49929
              H 6  -- H 13                  -0.06        2.49929
              H 25 -- H 37                  -0.06        2.49929
              H 19 -- H 31                  -0.06        2.49929
              H 13 -- H 24                   0.02        2.50602
              H 7  -- H 30                   0.02        2.50602
              H 18 -- H 19                   0.02        2.50602
              H 12 -- H 25                   0.02        2.50602
              H 6  -- H 36                   0.02        2.50602
              H 1  -- H 31                   0.02        2.50602
              H 42 -- H 43                   0.02        2.50602
              H 37 -- H 48                   0.02        2.50602
              H 9  -- H 14                   0.03        2.51574
              H 5  -- H 45                   0.03        2.51574
              H 32 -- H 39                   0.03        2.51574
              H 20 -- H 27                   0.03        2.51574
              H 33 -- H 38                   0.03        2.51574
              H 21 -- H 26                   0.03        2.51574
              H 8  -- H 15                   0.03        2.51574
              H 4  -- H 44                   0.03        2.51574
              H 21 -- H 33                  -0.00        2.52611
              H 4  -- H 15                  -0.00        2.52611
              H 27 -- H 39                  -0.00        2.52611
              H 9  -- H 45                  -0.00        2.52611
              H 25 -- H 31                   0.03        2.53004
              H 13 -- H 43                   0.03        2.53004
              H 6  -- H 7                    0.03        2.53004
              H 19 -- H 37                   0.03        2.53004
              H 29 -- H 45                   0.06        2.53939
              H 11 -- H 39                   0.06        2.53939
              H 17 -- H 33                   0.06        2.53939
              H 4  -- H 23                   0.06        2.53939
              H 27 -- H 47                   0.06        2.53939
              H 9  -- H 41                   0.06        2.53939
              H 15 -- H 35                   0.06        2.53939
              H 2  -- H 21                   0.06        2.53939
              H 40 -- H 46                   0.06        2.53987
              H 10 -- H 28                   0.06        2.53987
              H 16 -- H 22                   0.06        2.53987
              H 3  -- H 34                   0.06        2.53987
              H 8  -- H 35                   0.03        2.56089
              H 2  -- H 26                   0.03        2.56089
              H 23 -- H 44                   0.03        2.56089
              H 17 -- H 38                   0.03        2.56089
              H 5  -- H 29                   0.03        2.56089
              H 11 -- H 32                   0.03        2.56089
              H 14 -- H 41                   0.03        2.56089
              H 20 -- H 47                   0.03        2.56089
              H 25 -- H 40                   0.06        2.57153
              H 28 -- H 37                   0.06        2.57153
              H 22 -- H 31                   0.06        2.57153
              H 10 -- H 43                   0.06        2.57153
              H 7  -- H 46                   0.06        2.57153
              H 6  -- H 16                   0.06        2.57153
              H 19 -- H 34                   0.06        2.57153
              H 3  -- H 13                   0.06        2.57153
              H 33 -- H 34                   0.05        2.57329
              H 3  -- H 4                    0.05        2.57329
              H 21 -- H 22                   0.05        2.57329
              H 15 -- H 16                   0.05        2.57329
              H 9  -- H 10                   0.05        2.57329
              H 27 -- H 28                   0.05        2.57329
              H 45 -- H 46                   0.05        2.57329
              H 39 -- H 40                   0.05        2.57329
              H 9  -- H 42                   0.07        2.57996
              H 27 -- H 48                   0.07        2.57996
              H 15 -- H 36                   0.07        2.57996
              H 1  -- H 21                   0.07        2.57996
              H 30 -- H 45                   0.07        2.57996
              H 12 -- H 39                   0.07        2.57996
              H 4  -- H 24                   0.07        2.57996
              H 18 -- H 33                   0.07        2.57996
              H 28 -- H 34                   0.05        2.58391
              H 3  -- H 10                   0.05        2.58391
              H 22 -- H 40                   0.05        2.58391
              H 16 -- H 46                   0.05        2.58391
              H 34 -- H 38                   0.04        2.59961
              H 3  -- H 44                   0.04        2.59961
              H 20 -- H 28                   0.04        2.59961
              H 10 -- H 14                   0.04        2.59961
              H 32 -- H 40                   0.04        2.59961
              H 22 -- H 26                   0.04        2.59961
              H 5  -- H 46                   0.04        2.59961
              H 8  -- H 16                   0.04        2.59961
              H 31 -- H 46                   0.05        2.60117
              H 13 -- H 28                   0.05        2.60117
              H 10 -- H 19                   0.05        2.60117
              H 6  -- H 40                   0.05        2.60117
              H 16 -- H 25                   0.05        2.60117
              H 7  -- H 22                   0.05        2.60117
              H 34 -- H 43                   0.05        2.60117
              H 3  -- H 37                   0.05        2.60117
              H 12 -- H 48                   0.05        2.60856
              H 30 -- H 42                   0.05        2.60856
              H 1  -- H 18                   0.05        2.60856
              H 24 -- H 36                   0.05        2.60856
              H 4  -- H 17                   0.08        2.61486
              H 29 -- H 39                   0.08        2.61486
              H 23 -- H 33                   0.08        2.61486
              H 11 -- H 45                   0.08        2.61486
              H 2  -- H 15                   0.08        2.61486
              H 27 -- H 41                   0.08        2.61486
              H 21 -- H 35                   0.08        2.61486
              H 9  -- H 47                   0.08        2.61486
              H 20 -- H 42                   0.03        2.61765
              H 14 -- H 48                   0.03        2.61765
              H 1  -- H 8                    0.03        2.61765
              H 26 -- H 36                   0.03        2.61765
              H 18 -- H 44                   0.03        2.61765
              H 30 -- H 32                   0.03        2.61765
              H 5  -- H 12                   0.03        2.61765
              H 24 -- H 38                   0.03        2.61765
              H 29 -- H 41                   0.06        2.62767
              H 23 -- H 35                   0.06        2.62767
              H 11 -- H 47                   0.06        2.62767
              H 2  -- H 17                   0.06        2.62767
              H 22 -- H 34                   0.07        2.63135
              H 3  -- H 16                   0.07        2.63135
              H 28 -- H 40                   0.07        2.63135
              H 10 -- H 46                   0.07        2.63135
              H 28 -- H 48                   0.02        2.63377
              H 12 -- H 40                   0.02        2.63377
              H 10 -- H 42                   0.02        2.63377
              H 1  -- H 22                   0.02        2.63377
              H 16 -- H 36                   0.02        2.63377
              H 30 -- H 46                   0.02        2.63377
              H 18 -- H 34                   0.02        2.63377
              H 3  -- H 24                   0.02        2.63377
              H 17 -- H 45                   0.06        2.64196
              H 29 -- H 33                   0.06        2.64196
              H 23 -- H 39                   0.06        2.64196
              H 4  -- H 11                   0.06        2.64196
              H 27 -- H 35                   0.06        2.64196
              H 2  -- H 9                    0.06        2.64196
              H 15 -- H 47                   0.06        2.64196
              H 21 -- H 41                   0.06        2.64196
              H 24 -- H 43                   0.05        2.65280
              H 6  -- H 30                   0.05        2.65280
              H 18 -- H 37                   0.05        2.65280
              H 12 -- H 31                   0.05        2.65280
              H 7  -- H 36                   0.05        2.65280
              H 1  -- H 25                   0.05        2.65280
              H 13 -- H 42                   0.05        2.65280
              H 19 -- H 48                   0.05        2.65280
              H 26 -- H 35                   0.06        2.67410
              H 2  -- H 8                    0.06        2.67410
              H 17 -- H 44                   0.06        2.67410
              H 23 -- H 38                   0.06        2.67410
              H 29 -- H 32                   0.06        2.67410
              H 5  -- H 11                   0.06        2.67410
              H 20 -- H 41                   0.06        2.67410
              H 14 -- H 47                   0.06        2.67410
              H 5  -- H 7                    0.02        2.67471
              H 26 -- H 31                   0.02        2.67471
              H 19 -- H 38                   0.02        2.67471
              H 13 -- H 44                   0.02        2.67471
              H 6  -- H 8                    0.02        2.67471
              H 25 -- H 32                   0.02        2.67471
              H 14 -- H 43                   0.02        2.67471
              H 20 -- H 37                   0.02        2.67471
              H 33 -- H 44                   0.03        2.67630
              H 15 -- H 26                   0.03        2.67630
              H 14 -- H 27                   0.03        2.67630
              H 8  -- H 21                   0.03        2.67630
              H 5  -- H 39                   0.03        2.67630
              H 32 -- H 45                   0.03        2.67630
              H 9  -- H 20                   0.03        2.67630
              H 4  -- H 38                   0.03        2.67630
              H 31 -- H 40                   0.07        2.68317
              H 22 -- H 25                   0.07        2.68317
              H 19 -- H 28                   0.07        2.68317
              H 10 -- H 13                   0.07        2.68317
              H 6  -- H 46                   0.07        2.68317
              H 7  -- H 16                   0.07        2.68317
              H 34 -- H 37                   0.07        2.68317
              H 3  -- H 43                   0.07        2.68317
              H 33 -- H 37                   0.03        2.68923
              H 4  -- H 43                   0.03        2.68923
              H 9  -- H 13                   0.03        2.68923
              H 7  -- H 15                   0.03        2.68923
              H 6  -- H 45                   0.03        2.68923
              H 21 -- H 25                   0.03        2.68923
              H 19 -- H 27                   0.03        2.68923
              H 31 -- H 39                   0.03        2.68923
              H 6  -- H 25                   0.03        2.69849
              H 7  -- H 31                   0.03        2.69849
              H 13 -- H 37                   0.03        2.69849
              H 19 -- H 43                   0.03        2.69849
              H 9  -- H 15                   0.03        2.70563
              H 21 -- H 27                   0.03        2.70563
              H 33 -- H 39                   0.03        2.70563
              H 4  -- H 45                   0.03        2.70563
              H 14 -- H 42                   0.06        2.70574
              H 20 -- H 48                   0.06        2.70574
              H 8  -- H 36                   0.06        2.70574
              H 1  -- H 26                   0.06        2.70574
              H 5  -- H 30                   0.06        2.70574
              H 24 -- H 44                   0.06        2.70574
              H 18 -- H 38                   0.06        2.70574
              H 12 -- H 32                   0.06        2.70574
              H 22 -- H 41                  -0.00        2.70866
              H 16 -- H 47                  -0.00        2.70866
              H 28 -- H 35                  -0.00        2.70866
              H 2  -- H 10                  -0.00        2.70866
              H 23 -- H 40                  -0.00        2.70866
              H 17 -- H 46                  -0.00        2.70866
              H 29 -- H 34                  -0.00        2.70866
              H 3  -- H 11                  -0.00        2.70866
              H 8  -- H 14                   0.02        2.70931
              H 20 -- H 26                   0.02        2.70931
              H 5  -- H 44                   0.02        2.70931
              H 32 -- H 38                   0.02        2.70931
              H 35 -- H 41                   0.02        2.71266
              H 23 -- H 29                   0.02        2.71266
              H 11 -- H 17                   0.02        2.71266
              H 2  -- H 47                   0.02        2.71266
              H 18 -- H 48                  -0.00        2.76236
              H 24 -- H 42                  -0.00        2.76236
              H 1  -- H 12                  -0.00        2.76236
              H 30 -- H 36                  -0.00        2.76236
======================================================================


Writing analysis data to Pbcn.castep_bin

Writing model to Pbcn.check
 
 A BibTeX formatted list of references used in this run has been written to 
 Pbcn.bib
 
Initialisation time =      5.30 s
Calculation time    =   5095.90 s
Finalisation time   =     27.46 s
Total time          =   5128.67 s
Peak Memory Use     = 716880 kB
  
Overall parallel efficiency rating: Excellent (97%)                             
  
Data was distributed by:-
k-point (32-way); efficiency rating: Excellent (97%)                            
