 +-------------------------------------------------+
 |                                                 |
 |      CCC   AA    SSS  TTTTT  EEEEE  PPPP        |
 |     C     A  A  S       T    E      P   P       |
 |     C     AAAA   SS     T    EEE    PPPP        |
 |     C     A  A     S    T    E      P           |
 |      CCC  A  A  SSS     T    EEEEE  P           |
 |                                                 |
 +-------------------------------------------------+
 |                                                 |
 | Welcome to Academic Release CASTEP version 18.1 |          
 | Ab Initio Total Energy Program                  |
 |                                                 |
 | Authors:                                        |
 | M. Segall, M. Probert, C. Pickard, P. Hasnip,   |
 | S. Clark, K. Refson, J. R. Yates, M. Payne      |
 |                                                 |
 | Contributors:                                   |
 | P. Lindan, P. Haynes, J. White, V. Milman,      |
 | N. Govind, M. Gibson, P. Tulip, V. Cocula,      |
 | B. Montanari, D. Quigley, M. Glover,            |
 | L. Bernasconi, A. Perlov, M. Plummer,           |
 | E. McNellis, J. Meyer, J. Gale, D. Jochym       |
 | J. Aarons, B. Walker, R. Gillen, D. Jones       |
 | T. Green, I. J. Bush, C. J. Armstrong,          |
 | E. J. Higgins, E. L. Brown, M. S. McFly,        |
 | J. Wilkins, B-C. Shih, P. J. P. Byrne           |
 |                                                 |
 | Copyright (c) 2000 - 2017                       |
 |                                                 |
 |     Distributed under the terms of an           |
 |     Agreement between the United Kingdom        |
 |     Car-Parrinello (UKCP) Consortium,           |
 |     Daresbury Laboratory and Accelrys, Inc.     |
 |                                                 |
 | Please cite                                     |
 |                                                 |
 |     "First principles methods using CASTEP"     |
 |                                                 |
 |         Zeitschrift fuer Kristallographie       |
 |           220(5-6) pp. 567-570 (2005)           |
 |                                                 |
 | S. J. Clark, M. D. Segall, C. J. Pickard,       |
 | P. J. Hasnip, M. J. Probert, K. Refson,         |
 | M. C. Payne                                     |
 |                                                 |
 |       in all publications arising from          |
 |              your use of CASTEP                 |
 |                                                 |
 +-------------------------------------------------+


 Compiled for linux_x86_64_gfortran4.8 on Thu, 19 Jul 2018 15:42:32 +0100
 from code version 70483bd0ad64+  Sun, 10 Dec 2017 12:18:29 +0000
 Compiler: GNU Fortran 4.8.5; Optimisation: fast
 MATHLIBS: Intel MKL(2018.0.0) (LAPACK version 3.7.0)
 FFT Lib : mkl
 Fundamental constants values: CODATA 2014

 Run started: Thu, 27 Aug 2020 21:38:25 +0100

 Atomic calculation performed for H: 1s1

 Converged in 41 iterations to an ae energy of -12.488 eV

   ============================================================                
   | Pseudopotential Report - Date of generation 27-08-2020   |                
   ------------------------------------------------------------                
   | Element: H Ionic charge:  1.00 Level of theory: PBE      |                
   | Atomic Solver: Koelling-Harmon                           |                
   |                                                          |                
   |               Reference Electronic Structure             |                
   |         Orbital         Occupation         Energy        |                
   |            1s              1.000           -0.239        |                
   |                                                          |                
   |                 Pseudopotential Definition               |                
   |        Beta     l      e      Rc     scheme   norm       |                
   |         loc     0   -0.239   0.702     qc      1         |                
   |                                                          |                
   | No charge augmentation                                   |                
   | No partial core correction                               |                
   ------------------------------------------------------------                
   | "0|0.7|2|6|8|10L(qc=10)"                                 |                
   ------------------------------------------------------------                
   |      Author: Chris J. Pickard, Cambridge University      |                
   ============================================================                

 Pseudo atomic calculation performed for H 1s1

 Converged in 24 iterations to a total energy of -12.4855 eV

 Calculation parallelised over 32 processes.
 Data is distributed by k-point(32-way)

 ************************************ Title ************************************
 

 ***************************** General Parameters ******************************
  
 output verbosity                               : normal  (1)
 write checkpoint data to                       : Pbcn.check
 type of calculation                            : geometry optimization
 stress calculation                             : on
 density difference calculation                 : off
 electron localisation func (ELF) calculation   : off
 Hirshfeld analysis                             : off
 unlimited duration calculation
 timing information                             : on
 memory usage estimate                          : on
 write extra output files                       : on
 write final potential to formatted file        : off
 write final density to formatted file          : off
 write structure in CELL formatted file         : on
 write BibTeX reference list                    : on
 write OTFG pseudopotential files               : on
 write electrostatic potential file             : on
 write bands file                               : on
 checkpoint writing                             : both castep_bin and check files
  
 output         length unit                     : A
 output           mass unit                     : amu
 output           time unit                     : ps
 output         charge unit                     : e
 output           spin unit                     : hbar/2
 output         energy unit                     : eV
 output          force unit                     : eV/A
 output       velocity unit                     : A/ps
 output       pressure unit                     : GPa
 output     inv_length unit                     : 1/A
 output      frequency unit                     : cm-1
 output force constant unit                     : eV/A**2
 output         volume unit                     : A**3
 output   IR intensity unit                     : (D/A)**2/amu
 output         dipole unit                     : D
 output         efield unit                     : eV/A/e
 output        entropy unit                     : J/mol/K
  
 wavefunctions paging                           : none
 random number generator seed                   : randomised (213826178)
 data distribution                              : optimal for this architecture
 optimization strategy                          : maximize speed(+++)

 *********************** Exchange-Correlation Parameters ***********************
  
 using functional                               : Perdew Burke Ernzerhof
 relativistic treatment                         : Koelling-Harmon
 DFT+D: Semi-empirical dispersion correction    : off

 ************************* Pseudopotential Parameters **************************
  
 pseudopotential representation                 : reciprocal space
 <beta|phi> representation                      : reciprocal space
 spin-orbit coupling                            : off

 **************************** Basis Set Parameters *****************************
  
 plane wave basis set cut-off                   :  1600.0000   eV
 size of standard grid                          :     2.0000
 size of   fine   gmax                          :    40.9853   1/A
 finite basis set correction                    : automatic
 number of sample energies                      :          3
           sample  spacing                      :     5.0000   eV

 **************************** Electronic Parameters ****************************
  
 number of  electrons                           :  48.00    
 net charge of system                           :  0.000    
 treating system as non-spin-polarized
 number of bands                                :         24

 ********************* Electronic Minimization Parameters **********************
  
 Method: Treating system as non-metallic,
         and number of  SD  steps               :          1
         and number of  CG  steps               :          4
  
 total energy / atom convergence tol.           : 0.1000E-10   eV
 eigen-energy convergence tolerance             : 0.2000E-10   eV
 max force / atom convergence tol.              : ignored
 convergence tolerance window                   :          3   cycles
 max. number of SCF cycles                      :        100
 periodic dipole correction                     : NONE

 ************************** Density Mixing Parameters **************************
  
 density-mixing scheme                          : Broyden
 max. length of mixing history                  :         20
 charge density mixing amplitude                : 0.8000    
 cut-off energy for mixing                      :  1600.       eV

 *********************** Population Analysis Parameters ************************
  
 Population analysis with cutoff                :  3.000       A
 Population analysis output                     : summary and pdos components

 ********************** Geometry Optimization Parameters ***********************
  
 optimization method                            : LBFGS
 max. no. of LBFGS updates                      : unbounded
 variable cell method                           : fixed basis quality
 max. number of steps                           :        100
 estimated bulk modulus                         :  500.0       GPa
 estimated <frequency>                          :  1668.       cm-1
 geom line minimiser                            : on
 with line minimiser tolerance                  :     0.4000
 total energy convergence tolerance             : 0.1000E-08   eV/atom
        max ionic |force| tolerance             : 0.1000E-04   eV/A
 max ionic |displacement| tolerance             : 0.1000E-04   A
   max |stress component| tolerance             : 0.1000E-04   GPa
 convergence tolerance window                   :          2   steps
 backup results every                           :      14400   seconds
 write geom trajectory file                     : on

 *******************************************************************************
  

                           -------------------------------
                                      Unit Cell
                           -------------------------------
        Real Lattice(A)                      Reciprocal Lattice(1/A)
     2.9695551    -0.0000000     0.0000000        2.115867531   0.000000000   0.000000000
    -0.0000000     5.1638298     0.0000000        0.000000000   1.216768465   0.000000000
     0.0000000     0.0000000     5.2945330        0.000000000   0.000000000   1.186730781

                       Lattice parameters(A)       Cell Angles
                    a =      2.969555          alpha =   90.000000
                    b =      5.163830          beta  =   90.000000
                    c =      5.294533          gamma =   90.000000

                       Current cell volume =            81.187838       A**3
                                   density =             0.595916   AMU/A**3
                                           =             0.989542     g/cm^3

                           -------------------------------
                                     Cell Contents
                           -------------------------------
                         Total number of ions in cell =   48
                      Total number of species in cell =    1
                        Max number of any one species =   48

            xxxxxxxxxxxxxxxxxxxxxxxxxxxxxxxxxxxxxxxxxxxxxxxxxxxxxxxxxxxx
            x  Element    Atom        Fractional coordinates of atoms  x
            x            Number           u          v          w      x
            x----------------------------------------------------------x
            x  H            1         0.401208   0.115891   0.010620   x 
            x  H            2         0.579541   0.210289   0.027734   x 
            x  H            3         0.574969   0.554824   0.003923   x 
            x  H            4         0.134945   0.171617   0.248548   x 
            x  H            5         0.310042   0.348197   0.243569   x 
            x  H            6         0.175555   0.482370   0.250365   x 
            x  H            7         0.175555   0.517630   0.750365   x 
            x  H            8         0.310042   0.651803   0.743569   x 
            x  H            9         0.134945   0.828383   0.748548   x 
            x  H           10         0.574969   0.445176   0.503923   x 
            x  H           11         0.579541   0.789711   0.527734   x 
            x  H           12         0.401208   0.884109   0.510620   x 
            x  H           13         0.324445   0.982370   0.250365   x 
            x  H           14         0.189958   0.848197   0.243569   x 
            x  H           15         0.365055   0.671617   0.248548   x 
            x  H           16        -0.074969   0.054824   0.003923   x 
            x  H           17        -0.079541   0.710289   0.027734   x 
            x  H           18         0.098792   0.615891   0.010620   x 
            x  H           19         0.675555   0.982370   0.249635   x 
            x  H           20         0.810042   0.848197   0.256431   x 
            x  H           21         0.634945   0.671617   0.251452   x 
            x  H           22         1.074969   0.054824   0.496077   x 
            x  H           23         1.079541   0.710289   0.472266   x 
            x  H           24         0.901208   0.615891   0.489380   x 
            x  H           25         0.824445   0.517630   0.749635   x 
            x  H           26         0.689958   0.651803   0.756431   x 
            x  H           27         0.865055   0.828383   0.751452   x 
            x  H           28         0.425031   0.445176  -0.003923   x 
            x  H           29         0.420459   0.789711   0.972266   x 
            x  H           30         0.598792   0.884109   0.989380   x 
            x  H           31         0.824445   0.482370   0.249635   x 
            x  H           32         0.689958   0.348197   0.256431   x 
            x  H           33         0.865055   0.171617   0.251452   x 
            x  H           34         0.425031   0.554824   0.496077   x 
            x  H           35         0.420459   0.210289   0.472266   x 
            x  H           36         0.598792   0.115891   0.489380   x 
            x  H           37         0.675555   0.017630   0.749635   x 
            x  H           38         0.810042   0.151803   0.756431   x 
            x  H           39         0.634945   0.328383   0.751452   x 
            x  H           40         0.074969  -0.054824  -0.003923   x 
            x  H           41         1.079541   0.289711   0.972266   x 
            x  H           42         0.901208   0.384109   0.989380   x 
            x  H           43         0.324445   0.017630   0.750365   x 
            x  H           44         0.189958   0.151803   0.743569   x 
            x  H           45         0.365055   0.328383   0.748548   x 
            x  H           46         0.925031  -0.054824   0.503923   x 
            x  H           47        -0.079541   0.289711   0.527734   x 
            x  H           48         0.098792   0.384109   0.510620   x 
            xxxxxxxxxxxxxxxxxxxxxxxxxxxxxxxxxxxxxxxxxxxxxxxxxxxxxxxxxxxx


                         No user defined ionic velocities

                           -------------------------------
                                   Details of Species
                           -------------------------------

                               Mass of species in AMU
                                    H    1.0078250

                          Electric Quadrupole Moment (Barn)
                                    H    0.0028600 Isotope  2

                          Files used for pseudopotentials:
                                    H 0|0.7|2|6|8|10L(qc=10)

                           -------------------------------
                              k-Points For BZ Sampling
                           -------------------------------
                       MP grid size for SCF calculation is 12 12 12
                            with an offset of   0.000  0.000  0.000
                       Number of kpoints used =           216

                           -------------------------------
                               Symmetry and Constraints
                           -------------------------------

                      Maximum deviation from symmetry = 0.103194E-13     ANG

                      Number of symmetry operations   =           8
                      Number of ionic constraints     =           3
                      Point group of crystal =     8: D2h, mmm, 2/m 2/m 2/m
                      Space group of crystal =    60: Pbcn, -P 2n 2ab

             Set iprint > 1 for details on symmetry rotations/translations

                         Centre of mass is constrained
             Set iprint > 1 for details of linear ionic constraints

                         Number of cell constraints= 3
                         Cell constraints are:  1 2 3 0 0 0

                         External pressure/stress (GPa)
                        180.00000   0.00000   0.00000
                                  180.00000   0.00000
                                            180.00000
  
+---------------- MEMORY AND SCRATCH DISK ESTIMATES PER PROCESS --------------+
|                                                     Memory          Disk    |
| Baseline code, static data and system overhead      479.0 MB         0.0 MB |
| BLAS internal memory storage                          0.0 MB         0.0 MB |
| Model and support data                               97.1 MB         0.0 MB |
| Electronic energy minimisation requirements         123.1 MB         0.0 MB |
| Force calculation requirements                       23.7 MB         0.0 MB |
| Stress calculation requirements                      30.1 MB         0.0 MB |
|                                               ----------------------------- |
| Approx. total storage required per process          699.2 MB         0.0 MB |
|                                                                             |
| Requirements will fluctuate during execution and may exceed these estimates |
+-----------------------------------------------------------------------------+
Calculating finite basis set correction with  3 cut-off energies.
Calculating total energy with cut-off of 1590.000 eV.
------------------------------------------------------------------------ <-- SCF
SCF loop      Energy                           Energy gain       Timer   <-- SCF
                                               per atom          (sec)   <-- SCF
------------------------------------------------------------------------ <-- SCF
Initial   1.10335121E+003                                         12.26  <-- SCF
      1  -5.84481036E+002                    3.51631719E+001      29.50  <-- SCF
      2  -6.98998390E+002                    2.38577820E+000      40.98  <-- SCF
      3  -6.99611843E+002                    1.27802723E-002      57.63  <-- SCF
      4  -6.99583308E+002                   -5.94479064E-004      74.32  <-- SCF
      5  -6.99584324E+002                    2.11803256E-005      90.84  <-- SCF
      6  -6.99584396E+002                    1.49738369E-006     107.67  <-- SCF
      7  -6.99584397E+002                    1.56428827E-008     124.20  <-- SCF
      8  -6.99584397E+002                    7.71100107E-010     140.85  <-- SCF
      9  -6.99584397E+002                    2.18765802E-011     153.25  <-- SCF
     10  -6.99584397E+002                    1.23461090E-012     165.13  <-- SCF
     11  -6.99584397E+002                    2.21545187E-014     176.94  <-- SCF
------------------------------------------------------------------------ <-- SCF
 
Final energy =  -699.5843970895     eV
(energy not corrected for finite basis set)
 
Calculating total energy with cut-off of 1595.000 eV.
------------------------------------------------------------------------ <-- SCF
SCF loop      Energy                           Energy gain       Timer   <-- SCF
                                               per atom          (sec)   <-- SCF
------------------------------------------------------------------------ <-- SCF
Initial  -6.99584397E+002                                        183.54  <-- SCF
      1  -6.99584516E+002                    2.48290297E-006     196.67  <-- SCF
      2  -6.99584516E+002                    1.94758360E-012     208.59  <-- SCF
      3  -6.99584516E+002                    5.35422351E-010     220.33  <-- SCF
      4  -6.99584516E+002                    2.85692589E-011     232.21  <-- SCF
      5  -6.99584516E+002                    1.73208055E-012     243.98  <-- SCF
      6  -6.99584516E+002                   -2.39671611E-013     255.70  <-- SCF
------------------------------------------------------------------------ <-- SCF
 
Final energy =  -699.5845162961     eV
(energy not corrected for finite basis set)
 
Calculating total energy with cut-off of 1600.000 eV.
------------------------------------------------------------------------ <-- SCF
SCF loop      Energy                           Energy gain       Timer   <-- SCF
                                               per atom          (sec)   <-- SCF
------------------------------------------------------------------------ <-- SCF
Initial  -6.99584516E+002                                        262.30  <-- SCF
      1  -6.99584628E+002                    2.33671843E-006     275.57  <-- SCF
      2  -6.99584628E+002                    1.92542908E-012     287.34  <-- SCF
      3  -6.99584628E+002                    4.96939952E-010     299.11  <-- SCF
      4  -6.99584628E+002                    2.58462671E-011     310.87  <-- SCF
      5  -6.99584628E+002                    1.14599283E-012     322.62  <-- SCF
      6  -6.99584628E+002                   -1.38969254E-013     334.40  <-- SCF
------------------------------------------------------------------------ <-- SCF
 
Final energy =  -699.5846284838     eV
(energy not corrected for finite basis set)
 
 For future reference: finite basis dEtot/dlog(Ecut) =      -0.036768eV
 Total energy corrected for finite basis set =    -699.584628 eV
 
+---------------- MEMORY AND SCRATCH DISK ESTIMATES PER PROCESS --------------+
|                                                     Memory          Disk    |
| Model and support data                               98.6 MB         0.0 MB |
| Electronic energy minimisation requirements         123.1 MB         0.0 MB |
| Geometry minimisation requirements                  157.1 MB         0.0 MB |
|                                               ----------------------------- |
| Approx. total storage required per process          378.8 MB         0.0 MB |
|                                                                             |
| Requirements will fluctuate during execution and may exceed these estimates |
+-----------------------------------------------------------------------------+
 

 ******************************** Symmetrised Forces ********************************
 *                                                                                  *
 *                           Cartesian components (eV/A)                            *
 * -------------------------------------------------------------------------------- *
 *                         x                    y                    z              *
 *                                                                                  *
 * H               1     -0.00000             -0.00000             -0.00000         *
 * H               2      0.00000              0.00000              0.00000         *
 * H               3     -0.00000             -0.00000             -0.00000         *
 * H               4     -0.00000             -0.00000             -0.00000         *
 * H               5     -0.00000              0.00000             -0.00000         *
 * H               6      0.00000             -0.00000              0.00000         *
 * H               7      0.00000              0.00000              0.00000         *
 * H               8     -0.00000             -0.00000             -0.00000         *
 * H               9     -0.00000              0.00000             -0.00000         *
 * H              10     -0.00000              0.00000             -0.00000         *
 * H              11      0.00000             -0.00000              0.00000         *
 * H              12     -0.00000              0.00000             -0.00000         *
 * H              13     -0.00000             -0.00000              0.00000         *
 * H              14      0.00000              0.00000             -0.00000         *
 * H              15      0.00000             -0.00000             -0.00000         *
 * H              16      0.00000             -0.00000             -0.00000         *
 * H              17     -0.00000              0.00000              0.00000         *
 * H              18      0.00000             -0.00000             -0.00000         *
 * H              19      0.00000             -0.00000             -0.00000         *
 * H              20     -0.00000              0.00000              0.00000         *
 * H              21     -0.00000             -0.00000              0.00000         *
 * H              22     -0.00000             -0.00000              0.00000         *
 * H              23      0.00000              0.00000             -0.00000         *
 * H              24     -0.00000             -0.00000              0.00000         *
 * H              25     -0.00000              0.00000             -0.00000         *
 * H              26      0.00000             -0.00000              0.00000         *
 * H              27      0.00000              0.00000              0.00000         *
 * H              28      0.00000              0.00000              0.00000         *
 * H              29     -0.00000             -0.00000             -0.00000         *
 * H              30      0.00000              0.00000              0.00000         *
 * H              31     -0.00000             -0.00000             -0.00000         *
 * H              32      0.00000              0.00000              0.00000         *
 * H              33      0.00000             -0.00000              0.00000         *
 * H              34      0.00000             -0.00000              0.00000         *
 * H              35     -0.00000              0.00000             -0.00000         *
 * H              36      0.00000             -0.00000              0.00000         *
 * H              37      0.00000              0.00000             -0.00000         *
 * H              38     -0.00000             -0.00000              0.00000         *
 * H              39     -0.00000              0.00000              0.00000         *
 * H              40     -0.00000              0.00000              0.00000         *
 * H              41      0.00000             -0.00000             -0.00000         *
 * H              42     -0.00000              0.00000              0.00000         *
 * H              43     -0.00000              0.00000              0.00000         *
 * H              44      0.00000             -0.00000             -0.00000         *
 * H              45      0.00000              0.00000             -0.00000         *
 * H              46      0.00000              0.00000             -0.00000         *
 * H              47     -0.00000             -0.00000              0.00000         *
 * H              48      0.00000              0.00000             -0.00000         *
 *                                                                                  *
 ************************************************************************************

 *********** Symmetrised Stress Tensor ***********
 *                                               *
 *          Cartesian components (GPa)           *
 * --------------------------------------------- *
 *             x             y             z     *
 *                                               *
 *  x   -209.997257      0.000000      0.000000  *
 *  y      0.000000   -209.997243      0.000000  *
 *  z      0.000000      0.000000   -209.997253  *
 *                                               *
 *  Pressure:  209.9973                          *
 *                                               *
 *************************************************
 LBFGS: finished iteration     0 with enthalpy= -6.08372393E+002 eV
  
 +-----------+-----------------+-----------------+------------+-----+ <-- LBFGS
 | Parameter |      value      |    tolerance    |    units   | OK? | <-- LBFGS
 +-----------+-----------------+-----------------+------------+-----+ <-- LBFGS
 |  dE/ion   |   0.000000E+000 |   1.000000E-009 |         eV | No  | <-- LBFGS
 |  |F|max   |   5.506719E-007 |   1.000000E-005 |       eV/A | Yes | <-- LBFGS
 |  |dR|max  |   0.000000E+000 |   1.000000E-005 |          A | No  | <-- LBFGS
 |   Smax    |   2.999726E+001 |   1.000000E-005 |        GPa | No  | <-- LBFGS
 +-----------+-----------------+-----------------+------------+-----+ <-- LBFGS
  

================================================================================
 Starting LBFGS iteration          1 ...
================================================================================
  
 +------------+-------------+-------------+-----------------+ <-- min LBFGS
 |    Step    |   lambda    |   F.delta'  |    enthalpy     | <-- min LBFGS
 +------------+-------------+-------------+-----------------+ <-- min LBFGS
 |  previous  |    0.000000 |    0.967547 |     -608.372393 | <-- min LBFGS
 +------------+-------------+-------------+-----------------+ <-- min LBFGS
  

--------------------------------------------------------------------------------
 LBFGS: starting iteration         1 with trial guess (lambda=  1.000000)
--------------------------------------------------------------------------------
 
+---------------- MEMORY AND SCRATCH DISK ESTIMATES PER PROCESS --------------+
|                                                     Memory          Disk    |
| Model and support data                              101.1 MB         0.0 MB |
| Electronic energy minimisation requirements         129.5 MB         0.0 MB |
| Geometry minimisation requirements                  165.4 MB         0.0 MB |
|                                               ----------------------------- |
| Approx. total storage required per process          396.0 MB         0.0 MB |
|                                                                             |
| Requirements will fluctuate during execution and may exceed these estimates |
+-----------------------------------------------------------------------------+
 

                           -------------------------------
                                      Unit Cell
                           -------------------------------
        Real Lattice(A)              Reciprocal Lattice(1/A)
     3.0289408    -0.0000000     0.0000000        2.074383651   0.000000000   0.000000000
    -0.0000000     5.2670969     0.0000000        0.000000000   1.192912409   0.000000000
     0.0000000     0.0000000     5.4004140        0.000000000   0.000000000   1.163463639

                       Lattice parameters(A)       Cell Angles
                    a =      3.028941          alpha =   90.000000
                    b =      5.267097          beta  =   90.000000
                    c =      5.400414          gamma =   90.000000

                Current cell volume =            86.156719 A**3

                           -------------------------------
                                     Cell Contents
                           -------------------------------

            xxxxxxxxxxxxxxxxxxxxxxxxxxxxxxxxxxxxxxxxxxxxxxxxxxxxxxxxxxxxxxxxx
            x  Element         Atom        Fractional coordinates of atoms  x
            x                 Number           u          v          w      x
            x---------------------------------------------------------------x
            x  H                 1         0.401208   0.115891   0.010620   x
            x  H                 2         0.579541   0.210289   0.027734   x
            x  H                 3         0.574969   0.554824   0.003923   x
            x  H                 4         0.134945   0.171617   0.248548   x
            x  H                 5         0.310042   0.348197   0.243569   x
            x  H                 6         0.175555   0.482370   0.250365   x
            x  H                 7         0.175555   0.517630   0.750365   x
            x  H                 8         0.310042   0.651803   0.743569   x
            x  H                 9         0.134945   0.828383   0.748548   x
            x  H                10         0.574969   0.445176   0.503923   x
            x  H                11         0.579541   0.789711   0.527734   x
            x  H                12         0.401208   0.884109   0.510620   x
            x  H                13         0.324445   0.982370   0.250365   x
            x  H                14         0.189958   0.848197   0.243569   x
            x  H                15         0.365055   0.671617   0.248548   x
            x  H                16        -0.074969   0.054824   0.003923   x
            x  H                17        -0.079541   0.710289   0.027734   x
            x  H                18         0.098792   0.615891   0.010620   x
            x  H                19         0.675555   0.982370   0.249635   x
            x  H                20         0.810042   0.848197   0.256431   x
            x  H                21         0.634945   0.671617   0.251452   x
            x  H                22         1.074969   0.054824   0.496077   x
            x  H                23         1.079541   0.710289   0.472266   x
            x  H                24         0.901208   0.615891   0.489380   x
            x  H                25         0.824445   0.517630   0.749635   x
            x  H                26         0.689958   0.651803   0.756431   x
            x  H                27         0.865055   0.828383   0.751452   x
            x  H                28         0.425031   0.445176  -0.003923   x
            x  H                29         0.420459   0.789711   0.972266   x
            x  H                30         0.598792   0.884109   0.989380   x
            x  H                31         0.824445   0.482370   0.249635   x
            x  H                32         0.689958   0.348197   0.256431   x
            x  H                33         0.865055   0.171617   0.251452   x
            x  H                34         0.425031   0.554824   0.496077   x
            x  H                35         0.420459   0.210289   0.472266   x
            x  H                36         0.598792   0.115891   0.489380   x
            x  H                37         0.675555   0.017630   0.749635   x
            x  H                38         0.810042   0.151803   0.756431   x
            x  H                39         0.634945   0.328383   0.751452   x
            x  H                40         0.074969  -0.054824  -0.003923   x
            x  H                41         1.079541   0.289711   0.972266   x
            x  H                42         0.901208   0.384109   0.989380   x
            x  H                43         0.324445   0.017630   0.750365   x
            x  H                44         0.189958   0.151803   0.743569   x
            x  H                45         0.365055   0.328383   0.748548   x
            x  H                46         0.925031  -0.054824   0.503923   x
            x  H                47        -0.079541   0.289711   0.527734   x
            x  H                48         0.098792   0.384109   0.510620   x
            xxxxxxxxxxxxxxxxxxxxxxxxxxxxxxxxxxxxxxxxxxxxxxxxxxxxxxxxxxxxxxxxx


------------------------------------------------------------------------ <-- SCF
SCF loop      Energy                           Energy gain       Timer   <-- SCF
                                               per atom          (sec)   <-- SCF
------------------------------------------------------------------------ <-- SCF
Initial  -7.05445771E+002                                        351.89  <-- SCF
      1  -7.05571924E+002                    2.62818976E-003     365.37  <-- SCF
      2  -7.05572469E+002                    1.13537425E-005     382.75  <-- SCF
      3  -7.05570966E+002                   -3.13196597E-005     399.72  <-- SCF
      4  -7.05570953E+002                   -2.61330177E-007     416.85  <-- SCF
      5  -7.05570955E+002                    3.29907771E-008     433.68  <-- SCF
      6  -7.05570955E+002                    3.24080932E-009     450.76  <-- SCF
      7  -7.05570955E+002                    1.96732126E-011     462.79  <-- SCF
      8  -7.05570955E+002                    8.35829569E-013     474.67  <-- SCF
      9  -7.05570955E+002                   -3.82668959E-014     486.56  <-- SCF
------------------------------------------------------------------------ <-- SCF
 
Final energy =  -705.5709548997     eV
(energy not corrected for finite basis set)
 

 ******************************** Symmetrised Forces ********************************
 *                                                                                  *
 *                           Cartesian components (eV/A)                            *
 * -------------------------------------------------------------------------------- *
 *                         x                    y                    z              *
 *                                                                                  *
 * H               1      0.27185              0.25380              0.04503         *
 * H               2     -0.27577             -0.25285             -0.05066         *
 * H               3     -0.23684             -0.30250             -0.02308         *
 * H               4     -0.24680              0.02107              0.00647         *
 * H               5     -0.14245              0.20348              0.01751         *
 * H               6      0.10283             -0.22621             -0.01297         *
 * H               7      0.10283              0.22621             -0.01297         *
 * H               8     -0.14245             -0.20348              0.01751         *
 * H               9     -0.24680             -0.02107              0.00647         *
 * H              10     -0.23684              0.30250             -0.02308         *
 * H              11     -0.27577              0.25285             -0.05066         *
 * H              12      0.27185             -0.25380              0.04503         *
 * H              13     -0.10283             -0.22621             -0.01297         *
 * H              14      0.14245              0.20348              0.01751         *
 * H              15      0.24680              0.02107              0.00647         *
 * H              16      0.23684             -0.30250             -0.02308         *
 * H              17      0.27577             -0.25285             -0.05066         *
 * H              18     -0.27185              0.25380              0.04503         *
 * H              19      0.10283             -0.22621              0.01297         *
 * H              20     -0.14245              0.20348             -0.01751         *
 * H              21     -0.24680              0.02107             -0.00647         *
 * H              22     -0.23684             -0.30250              0.02308         *
 * H              23     -0.27577             -0.25285              0.05066         *
 * H              24      0.27185              0.25380             -0.04503         *
 * H              25     -0.10283              0.22621              0.01297         *
 * H              26      0.14245             -0.20348             -0.01751         *
 * H              27      0.24680             -0.02107             -0.00647         *
 * H              28      0.23684              0.30250              0.02308         *
 * H              29      0.27577              0.25285              0.05066         *
 * H              30     -0.27185             -0.25380             -0.04503         *
 * H              31     -0.10283             -0.22621              0.01297         *
 * H              32      0.14245              0.20348             -0.01751         *
 * H              33      0.24680              0.02107             -0.00647         *
 * H              34      0.23684             -0.30250              0.02308         *
 * H              35      0.27577             -0.25285              0.05066         *
 * H              36     -0.27185              0.25380             -0.04503         *
 * H              37      0.10283              0.22621              0.01297         *
 * H              38     -0.14245             -0.20348             -0.01751         *
 * H              39     -0.24680             -0.02107             -0.00647         *
 * H              40     -0.23684              0.30250              0.02308         *
 * H              41     -0.27577              0.25285              0.05066         *
 * H              42      0.27185             -0.25380             -0.04503         *
 * H              43     -0.10283              0.22621             -0.01297         *
 * H              44      0.14245             -0.20348              0.01751         *
 * H              45      0.24680             -0.02107              0.00647         *
 * H              46      0.23684              0.30250             -0.02308         *
 * H              47      0.27577              0.25285             -0.05066         *
 * H              48     -0.27185             -0.25380              0.04503         *
 *                                                                                  *
 ************************************************************************************

 *********** Symmetrised Stress Tensor ***********
 *                                               *
 *          Cartesian components (GPa)           *
 * --------------------------------------------- *
 *             x             y             z     *
 *                                               *
 *  x   -174.640561      0.000000      0.000000  *
 *  y      0.000000   -174.536395      0.000000  *
 *  z      0.000000      0.000000   -182.186405  *
 *                                               *
 *  Pressure:  177.1211                          *
 *                                               *
 *************************************************
  
 +------------+-------------+-------------+-----------------+ <-- min LBFGS
 |    Step    |   lambda    |   F.delta'  |    enthalpy     | <-- min LBFGS
 +------------+-------------+-------------+-----------------+ <-- min LBFGS
 |  previous  |    0.000000 |    0.967547 |     -608.372393 | <-- min LBFGS
 | trial step |    1.000000 |   -0.096608 |     -608.776324 | <-- min LBFGS
 +------------+-------------+-------------+-----------------+ <-- min LBFGS
  
 LBFGS: finished iteration     1 with enthalpy= -6.08776324E+002 eV
  
 +-----------+-----------------+-----------------+------------+-----+ <-- LBFGS
 | Parameter |      value      |    tolerance    |    units   | OK? | <-- LBFGS
 +-----------+-----------------+-----------------+------------+-----+ <-- LBFGS
 |  dE/ion   |   8.415215E-003 |   1.000000E-009 |         eV | No  | <-- LBFGS
 |  |F|max   |   3.848790E-001 |   1.000000E-005 |       eV/A | No  | <-- LBFGS
 |  |dR|max  |   5.448397E-008 |   1.000000E-005 |          A | Yes | <-- LBFGS
 |   Smax    |   5.463605E+000 |   1.000000E-005 |        GPa | No  | <-- LBFGS
 +-----------+-----------------+-----------------+------------+-----+ <-- LBFGS
  

================================================================================
 Starting LBFGS iteration          2 ...
================================================================================
  
 +------------+-------------+-------------+-----------------+ <-- min LBFGS
 |    Step    |   lambda    |   F.delta'  |    enthalpy     | <-- min LBFGS
 +------------+-------------+-------------+-----------------+ <-- min LBFGS
 |  previous  |    0.000000 |    0.282763 |     -608.776324 | <-- min LBFGS
 +------------+-------------+-------------+-----------------+ <-- min LBFGS
  

--------------------------------------------------------------------------------
 LBFGS: starting iteration         2 with trial guess (lambda=  1.000000)
--------------------------------------------------------------------------------
 
+---------------- MEMORY AND SCRATCH DISK ESTIMATES PER PROCESS --------------+
|                                                     Memory          Disk    |
| Model and support data                              102.1 MB         0.0 MB |
| Electronic energy minimisation requirements         132.0 MB         0.0 MB |
| Geometry minimisation requirements                  168.6 MB         0.0 MB |
|                                               ----------------------------- |
| Approx. total storage required per process          402.7 MB         0.0 MB |
|                                                                             |
| Requirements will fluctuate during execution and may exceed these estimates |
+-----------------------------------------------------------------------------+
 

                           -------------------------------
                                      Unit Cell
                           -------------------------------
        Real Lattice(A)              Reciprocal Lattice(1/A)
     3.0464489    -0.0000000     0.0000000        2.062462067   0.000000000   0.000000000
    -0.0000000     5.2972029     0.0000000        0.000000000   1.186132638   0.000000000
     0.0000000     0.0000000     5.4568246        0.000000000   0.000000000   1.151436192

                       Lattice parameters(A)       Cell Angles
                    a =      3.046449          alpha =   90.000000
                    b =      5.297203          beta  =   90.000000
                    c =      5.456825          gamma =   90.000000

                Current cell volume =            88.060369 A**3

                           -------------------------------
                                     Cell Contents
                           -------------------------------

            xxxxxxxxxxxxxxxxxxxxxxxxxxxxxxxxxxxxxxxxxxxxxxxxxxxxxxxxxxxxxxxxx
            x  Element         Atom        Fractional coordinates of atoms  x
            x                 Number           u          v          w      x
            x---------------------------------------------------------------x
            x  H                 1         0.409444   0.120313   0.011386   x
            x  H                 2         0.571187   0.205884   0.026873   x
            x  H                 3         0.567794   0.549554   0.003531   x
            x  H                 4         0.127468   0.171984   0.248658   x
            x  H                 5         0.305727   0.351741   0.243866   x
            x  H                 6         0.178671   0.478430   0.250145   x
            x  H                 7         0.178671   0.521570   0.750145   x
            x  H                 8         0.305727   0.648259   0.743866   x
            x  H                 9         0.127468   0.828016   0.748658   x
            x  H                10         0.567794   0.450446   0.503531   x
            x  H                11         0.571187   0.794116   0.526873   x
            x  H                12         0.409444   0.879687   0.511386   x
            x  H                13         0.321329   0.978430   0.250145   x
            x  H                14         0.194273   0.851741   0.243866   x
            x  H                15         0.372532   0.671984   0.248658   x
            x  H                16        -0.067794   0.049554   0.003531   x
            x  H                17        -0.071187   0.705884   0.026873   x
            x  H                18         0.090556   0.620313   0.011386   x
            x  H                19         0.678671   0.978430   0.249855   x
            x  H                20         0.805727   0.851741   0.256134   x
            x  H                21         0.627468   0.671984   0.251342   x
            x  H                22         1.067794   0.049554   0.496469   x
            x  H                23         1.071187   0.705884   0.473127   x
            x  H                24         0.909444   0.620313   0.488614   x
            x  H                25         0.821329   0.521570   0.749855   x
            x  H                26         0.694273   0.648259   0.756134   x
            x  H                27         0.872532   0.828016   0.751342   x
            x  H                28         0.432206   0.450446  -0.003531   x
            x  H                29         0.428813   0.794116   0.973127   x
            x  H                30         0.590556   0.879687   0.988614   x
            x  H                31         0.821329   0.478430   0.249855   x
            x  H                32         0.694273   0.351741   0.256134   x
            x  H                33         0.872532   0.171984   0.251342   x
            x  H                34         0.432206   0.549554   0.496469   x
            x  H                35         0.428813   0.205884   0.473127   x
            x  H                36         0.590556   0.120313   0.488614   x
            x  H                37         0.678671   0.021570   0.749855   x
            x  H                38         0.805727   0.148259   0.756134   x
            x  H                39         0.627468   0.328016   0.751342   x
            x  H                40         0.067794  -0.049554  -0.003531   x
            x  H                41         1.071187   0.294116   0.973127   x
            x  H                42         0.909444   0.379687   0.988614   x
            x  H                43         0.321329   0.021570   0.750145   x
            x  H                44         0.194273   0.148259   0.743866   x
            x  H                45         0.372532   0.328016   0.748658   x
            x  H                46         0.932206  -0.049554   0.503531   x
            x  H                47        -0.071187   0.294116   0.526873   x
            x  H                48         0.090556   0.379687   0.511386   x
            xxxxxxxxxxxxxxxxxxxxxxxxxxxxxxxxxxxxxxxxxxxxxxxxxxxxxxxxxxxxxxxxx


------------------------------------------------------------------------ <-- SCF
SCF loop      Energy                           Energy gain       Timer   <-- SCF
                                               per atom          (sec)   <-- SCF
------------------------------------------------------------------------ <-- SCF
Initial  -7.02866313E+002                                        504.00  <-- SCF
      1  -7.07439282E+002                    9.52701817E-002     517.51  <-- SCF
      2  -7.07465008E+002                    5.35957733E-004     534.49  <-- SCF
      3  -7.07053103E+002                   -8.58134695E-003     551.32  <-- SCF
      4  -7.07039098E+002                   -2.91785526E-004     568.45  <-- SCF
      5  -7.07039121E+002                    4.89767308E-007     585.28  <-- SCF
      6  -7.07039123E+002                    3.52273100E-008     602.37  <-- SCF
      7  -7.07039123E+002                    2.72087700E-010     619.20  <-- SCF
      8  -7.07039123E+002                    4.71589141E-011     631.30  <-- SCF
      9  -7.07039123E+002                    2.22350806E-012     643.18  <-- SCF
     10  -7.07039123E+002                    8.49927899E-013     655.12  <-- SCF
------------------------------------------------------------------------ <-- SCF
 
Final energy =  -707.0391228308     eV
(energy not corrected for finite basis set)
 

 ******************************** Symmetrised Forces ********************************
 *                                                                                  *
 *                           Cartesian components (eV/A)                            *
 * -------------------------------------------------------------------------------- *
 *                         x                    y                    z              *
 *                                                                                  *
 * H               1     -1.56900             -1.42207             -0.19563         *
 * H               2      1.59988              1.48028              0.36848         *
 * H               3      1.39093              1.77719              0.13410         *
 * H               4      0.23782             -0.06806              0.00299         *
 * H               5      0.19115             -0.18704              0.00003         *
 * H               6     -0.05247              0.24790              0.02169         *
 * H               7     -0.05247             -0.24790              0.02169         *
 * H               8      0.19115              0.18704              0.00003         *
 * H               9      0.23782              0.06806              0.00299         *
 * H              10      1.39093             -1.77719              0.13410         *
 * H              11      1.59988             -1.48028              0.36848         *
 * H              12     -1.56900              1.42207             -0.19563         *
 * H              13      0.05247              0.24790              0.02169         *
 * H              14     -0.19115             -0.18704              0.00003         *
 * H              15     -0.23782             -0.06806              0.00299         *
 * H              16     -1.39093              1.77719              0.13410         *
 * H              17     -1.59988              1.48028              0.36848         *
 * H              18      1.56900             -1.42207             -0.19563         *
 * H              19     -0.05247              0.24790             -0.02169         *
 * H              20      0.19115             -0.18704             -0.00003         *
 * H              21      0.23782             -0.06806             -0.00299         *
 * H              22      1.39093              1.77719             -0.13410         *
 * H              23      1.59988              1.48028             -0.36848         *
 * H              24     -1.56900             -1.42207              0.19563         *
 * H              25      0.05247             -0.24790             -0.02169         *
 * H              26     -0.19115              0.18704             -0.00003         *
 * H              27     -0.23782              0.06806             -0.00299         *
 * H              28     -1.39093             -1.77719             -0.13410         *
 * H              29     -1.59988             -1.48028             -0.36848         *
 * H              30      1.56900              1.42207              0.19563         *
 * H              31      0.05247              0.24790             -0.02169         *
 * H              32     -0.19115             -0.18704             -0.00003         *
 * H              33     -0.23782             -0.06806             -0.00299         *
 * H              34     -1.39093              1.77719             -0.13410         *
 * H              35     -1.59988              1.48028             -0.36848         *
 * H              36      1.56900             -1.42207              0.19563         *
 * H              37     -0.05247             -0.24790             -0.02169         *
 * H              38      0.19115              0.18704             -0.00003         *
 * H              39      0.23782              0.06806             -0.00299         *
 * H              40      1.39093             -1.77719             -0.13410         *
 * H              41      1.59988             -1.48028             -0.36848         *
 * H              42     -1.56900              1.42207              0.19563         *
 * H              43      0.05247             -0.24790              0.02169         *
 * H              44     -0.19115              0.18704              0.00003         *
 * H              45     -0.23782              0.06806              0.00299         *
 * H              46     -1.39093             -1.77719              0.13410         *
 * H              47     -1.59988             -1.48028              0.36848         *
 * H              48      1.56900              1.42207             -0.19563         *
 *                                                                                  *
 ************************************************************************************

 *********** Symmetrised Stress Tensor ***********
 *                                               *
 *          Cartesian components (GPa)           *
 * --------------------------------------------- *
 *             x             y             z     *
 *                                               *
 *  x   -189.946078      0.000000      0.000000  *
 *  y      0.000000   -190.109326      0.000000  *
 *  z      0.000000      0.000000   -167.718953  *
 *                                               *
 *  Pressure:  182.5915                          *
 *                                               *
 *************************************************
  
 +------------+-------------+-------------+-----------------+ <-- min LBFGS
 |    Step    |   lambda    |   F.delta'  |    enthalpy     | <-- min LBFGS
 +------------+-------------+-------------+-----------------+ <-- min LBFGS
 |  previous  |    0.000000 |    0.282763 |     -608.776324 | <-- min LBFGS
 | trial step |    1.000000 |   -1.305550 |     -608.105795 | <-- min LBFGS
 +------------+-------------+-------------+-----------------+ <-- min LBFGS
  

--------------------------------------------------------------------------------
 LBFGS: improving iteration         2 with line minimization (lambda=  0.178027)
--------------------------------------------------------------------------------

                           -------------------------------
                                      Unit Cell
                           -------------------------------
        Real Lattice(A)              Reciprocal Lattice(1/A)
     3.0320577    -0.0000000     0.0000000        2.072251213   0.000000000   0.000000000
    -0.0000000     5.2724566     0.0000000        0.000000000   1.191699761   0.000000000
     0.0000000     0.0000000     5.4104566        0.000000000   0.000000000   1.161304078

                       Lattice parameters(A)       Cell Angles
                    a =      3.032058          alpha =   90.000000
                    b =      5.272457          beta  =   90.000000
                    c =      5.410457          gamma =   90.000000

                Current cell volume =            86.493685 A**3

                           -------------------------------
                                     Cell Contents
                           -------------------------------

            xxxxxxxxxxxxxxxxxxxxxxxxxxxxxxxxxxxxxxxxxxxxxxxxxxxxxxxxxxxxxxxxx
            x  Element         Atom        Fractional coordinates of atoms  x
            x                 Number           u          v          w      x
            x---------------------------------------------------------------x
            x  H                 1         0.402675   0.116679   0.010757   x
            x  H                 2         0.578053   0.209505   0.027581   x
            x  H                 3         0.573692   0.553886   0.003853   x
            x  H                 4         0.133614   0.171683   0.248567   x
            x  H                 5         0.309274   0.348828   0.243622   x
            x  H                 6         0.176110   0.481669   0.250326   x
            x  H                 7         0.176110   0.518331   0.750326   x
            x  H                 8         0.309274   0.651172   0.743622   x
            x  H                 9         0.133614   0.828317   0.748567   x
            x  H                10         0.573692   0.446114   0.503853   x
            x  H                11         0.578053   0.790495   0.527581   x
            x  H                12         0.402675   0.883321   0.510757   x
            x  H                13         0.323890   0.981669   0.250326   x
            x  H                14         0.190726   0.848828   0.243622   x
            x  H                15         0.366386   0.671683   0.248567   x
            x  H                16        -0.073692   0.053886   0.003853   x
            x  H                17        -0.078053   0.709505   0.027581   x
            x  H                18         0.097325   0.616679   0.010757   x
            x  H                19         0.676110   0.981669   0.249674   x
            x  H                20         0.809274   0.848828   0.256378   x
            x  H                21         0.633614   0.671683   0.251433   x
            x  H                22         1.073692   0.053886   0.496147   x
            x  H                23         1.078053   0.709505   0.472419   x
            x  H                24         0.902675   0.616679   0.489243   x
            x  H                25         0.823890   0.518331   0.749674   x
            x  H                26         0.690726   0.651172   0.756378   x
            x  H                27         0.866386   0.828317   0.751433   x
            x  H                28         0.426308   0.446114  -0.003853   x
            x  H                29         0.421947   0.790495   0.972419   x
            x  H                30         0.597325   0.883321   0.989243   x
            x  H                31         0.823890   0.481669   0.249674   x
            x  H                32         0.690726   0.348828   0.256378   x
            x  H                33         0.866386   0.171683   0.251433   x
            x  H                34         0.426308   0.553886   0.496147   x
            x  H                35         0.421947   0.209505   0.472419   x
            x  H                36         0.597325   0.116679   0.489243   x
            x  H                37         0.676110   0.018331   0.749674   x
            x  H                38         0.809274   0.151172   0.756378   x
            x  H                39         0.633614   0.328317   0.751433   x
            x  H                40         0.073692  -0.053886  -0.003853   x
            x  H                41         1.078053   0.290495   0.972419   x
            x  H                42         0.902675   0.383321   0.989243   x
            x  H                43         0.323890   0.018331   0.750326   x
            x  H                44         0.190726   0.151172   0.743622   x
            x  H                45         0.366386   0.328317   0.748567   x
            x  H                46         0.926308  -0.053886   0.503853   x
            x  H                47        -0.078053   0.290495   0.527581   x
            x  H                48         0.097325   0.383321   0.510757   x
            xxxxxxxxxxxxxxxxxxxxxxxxxxxxxxxxxxxxxxxxxxxxxxxxxxxxxxxxxxxxxxxxx


------------------------------------------------------------------------ <-- SCF
SCF loop      Energy                           Energy gain       Timer   <-- SCF
                                               per atom          (sec)   <-- SCF
------------------------------------------------------------------------ <-- SCF
Initial  -7.03068970E+002                                        672.55  <-- SCF
      1  -7.06274744E+002                    6.67869426E-002     686.02  <-- SCF
      2  -7.06294119E+002                    4.03662537E-004     703.24  <-- SCF
      3  -7.06005409E+002                   -6.01479282E-003     720.04  <-- SCF
      4  -7.05996604E+002                   -1.83448261E-004     737.25  <-- SCF
      5  -7.05996600E+002                   -8.73632005E-008     754.08  <-- SCF
      6  -7.05996600E+002                   -3.08004203E-010     771.11  <-- SCF
      7  -7.05996600E+002                   -9.14035019E-011     787.95  <-- SCF
      8  -7.05996600E+002                    2.98723474E-011     799.97  <-- SCF
      9  -7.05996600E+002                    2.59207869E-012     811.87  <-- SCF
     10  -7.05996600E+002                    1.06744499E-013     823.77  <-- SCF
------------------------------------------------------------------------ <-- SCF
 
Final energy =  -705.9965995520     eV
(energy not corrected for finite basis set)
 

 ******************************** Symmetrised Forces ********************************
 *                                                                                  *
 *                           Cartesian components (eV/A)                            *
 * -------------------------------------------------------------------------------- *
 *                         x                    y                    z              *
 *                                                                                  *
 * H               1      0.01379              0.01963              0.01433         *
 * H               2     -0.01163             -0.00812              0.01328         *
 * H               3     -0.01103             -0.01294             -0.00088         *
 * H               4     -0.18132              0.00580              0.00641         *
 * H               5     -0.09408              0.15192              0.01530         *
 * H               6      0.08544             -0.16032             -0.00727         *
 * H               7      0.08544              0.16032             -0.00727         *
 * H               8     -0.09408             -0.15192              0.01530         *
 * H               9     -0.18132             -0.00580              0.00641         *
 * H              10     -0.01103              0.01294             -0.00088         *
 * H              11     -0.01163              0.00812              0.01328         *
 * H              12      0.01379             -0.01963              0.01433         *
 * H              13     -0.08544             -0.16032             -0.00727         *
 * H              14      0.09408              0.15192              0.01530         *
 * H              15      0.18132              0.00580              0.00641         *
 * H              16      0.01103             -0.01294             -0.00088         *
 * H              17      0.01163             -0.00812              0.01328         *
 * H              18     -0.01379              0.01963              0.01433         *
 * H              19      0.08544             -0.16032              0.00727         *
 * H              20     -0.09408              0.15192             -0.01530         *
 * H              21     -0.18132              0.00580             -0.00641         *
 * H              22     -0.01103             -0.01294              0.00088         *
 * H              23     -0.01163             -0.00812             -0.01328         *
 * H              24      0.01379              0.01963             -0.01433         *
 * H              25     -0.08544              0.16032              0.00727         *
 * H              26      0.09408             -0.15192             -0.01530         *
 * H              27      0.18132             -0.00580             -0.00641         *
 * H              28      0.01103              0.01294              0.00088         *
 * H              29      0.01163              0.00812             -0.01328         *
 * H              30     -0.01379             -0.01963             -0.01433         *
 * H              31     -0.08544             -0.16032              0.00727         *
 * H              32      0.09408              0.15192             -0.01530         *
 * H              33      0.18132              0.00580             -0.00641         *
 * H              34      0.01103             -0.01294              0.00088         *
 * H              35      0.01163             -0.00812             -0.01328         *
 * H              36     -0.01379              0.01963             -0.01433         *
 * H              37      0.08544              0.16032              0.00727         *
 * H              38     -0.09408             -0.15192             -0.01530         *
 * H              39     -0.18132             -0.00580             -0.00641         *
 * H              40     -0.01103              0.01294              0.00088         *
 * H              41     -0.01163              0.00812             -0.01328         *
 * H              42      0.01379             -0.01963             -0.01433         *
 * H              43     -0.08544              0.16032             -0.00727         *
 * H              44      0.09408             -0.15192              0.01530         *
 * H              45      0.18132             -0.00580              0.00641         *
 * H              46      0.01103              0.01294             -0.00088         *
 * H              47      0.01163              0.00812              0.01328         *
 * H              48     -0.01379             -0.01963              0.01433         *
 *                                                                                  *
 ************************************************************************************

 *********** Symmetrised Stress Tensor ***********
 *                                               *
 *          Cartesian components (GPa)           *
 * --------------------------------------------- *
 *             x             y             z     *
 *                                               *
 *  x   -176.864910      0.000000      0.000000  *
 *  y      0.000000   -176.764792      0.000000  *
 *  z      0.000000      0.000000   -179.583132  *
 *                                               *
 *  Pressure:  177.7376                          *
 *                                               *
 *************************************************
  
 +------------+-------------+-------------+-----------------+ <-- min LBFGS
 |    Step    |   lambda    |   F.delta'  |    enthalpy     | <-- min LBFGS
 +------------+-------------+-------------+-----------------+ <-- min LBFGS
 |  previous  |    0.000000 |    0.282763 |     -608.776324 | <-- min LBFGS
 | trial step |    1.000000 |   -1.305550 |     -608.105795 | <-- min LBFGS
 |  line step |    0.178027 |    0.060266 |     -608.823397 | <-- min LBFGS
 +------------+-------------+-------------+-----------------+ <-- min LBFGS
  
 LBFGS: finished iteration     2 with enthalpy= -6.08823397E+002 eV
  
 +-----------+-----------------+-----------------+------------+-----+ <-- LBFGS
 | Parameter |      value      |    tolerance    |    units   | OK? | <-- LBFGS
 +-----------+-----------------+-----------------+------------+-----+ <-- LBFGS
 |  dE/ion   |   9.806994E-004 |   1.000000E-009 |         eV | No  | <-- LBFGS
 |  |F|max   |   1.818090E-001 |   1.000000E-005 |       eV/A | No  | <-- LBFGS
 |  |dR|max  |   6.293578E-003 |   1.000000E-005 |          A | No  | <-- LBFGS
 |   Smax    |   3.235208E+000 |   1.000000E-005 |        GPa | No  | <-- LBFGS
 +-----------+-----------------+-----------------+------------+-----+ <-- LBFGS
  

================================================================================
 Starting LBFGS iteration          3 ...
================================================================================
  
 +------------+-------------+-------------+-----------------+ <-- min LBFGS
 |    Step    |   lambda    |   F.delta'  |    enthalpy     | <-- min LBFGS
 +------------+-------------+-------------+-----------------+ <-- min LBFGS
 |  previous  |    0.000000 |    0.120110 |     -608.823397 | <-- min LBFGS
 +------------+-------------+-------------+-----------------+ <-- min LBFGS
  

--------------------------------------------------------------------------------
 LBFGS: starting iteration         3 with trial guess (lambda=  1.000000)
--------------------------------------------------------------------------------

                           -------------------------------
                                      Unit Cell
                           -------------------------------
        Real Lattice(A)              Reciprocal Lattice(1/A)
     3.0314079    -0.0000000     0.0000000        2.072695453   0.000000000   0.000000000
    -0.0000000     5.2709128     0.0000000        0.000000000   1.192048802   0.000000000
     0.0000000     0.0000000     5.4187957        0.000000000   0.000000000   1.159516931

                       Lattice parameters(A)       Cell Angles
                    a =      3.031408          alpha =   90.000000
                    b =      5.270913          beta  =   90.000000
                    c =      5.418796          gamma =   90.000000

                Current cell volume =            86.583070 A**3

                           -------------------------------
                                     Cell Contents
                           -------------------------------

            xxxxxxxxxxxxxxxxxxxxxxxxxxxxxxxxxxxxxxxxxxxxxxxxxxxxxxxxxxxxxxxxx
            x  Element         Atom        Fractional coordinates of atoms  x
            x                 Number           u          v          w      x
            x---------------------------------------------------------------x
            x  H                 1         0.402205   0.116591   0.011000   x
            x  H                 2         0.578630   0.209871   0.028007   x
            x  H                 3         0.574143   0.554245   0.003883   x
            x  H                 4         0.126885   0.171777   0.248706   x
            x  H                 5         0.305839   0.352077   0.243948   x
            x  H                 6         0.179332   0.478266   0.250181   x
            x  H                 7         0.179332   0.521734   0.750181   x
            x  H                 8         0.305839   0.647923   0.743948   x
            x  H                 9         0.126885   0.828223   0.748706   x
            x  H                10         0.574143   0.445755   0.503883   x
            x  H                11         0.578630   0.790129   0.528007   x
            x  H                12         0.402205   0.883409   0.511000   x
            x  H                13         0.320668   0.978266   0.250181   x
            x  H                14         0.194161   0.852077   0.243948   x
            x  H                15         0.373115   0.671777   0.248706   x
            x  H                16        -0.074143   0.054245   0.003883   x
            x  H                17        -0.078630   0.709871   0.028007   x
            x  H                18         0.097795   0.616591   0.011000   x
            x  H                19         0.679332   0.978266   0.249819   x
            x  H                20         0.805839   0.852077   0.256052   x
            x  H                21         0.626885   0.671777   0.251294   x
            x  H                22         1.074143   0.054245   0.496117   x
            x  H                23         1.078630   0.709871   0.471993   x
            x  H                24         0.902205   0.616591   0.489000   x
            x  H                25         0.820668   0.521734   0.749819   x
            x  H                26         0.694161   0.647923   0.756052   x
            x  H                27         0.873115   0.828223   0.751294   x
            x  H                28         0.425857   0.445755  -0.003883   x
            x  H                29         0.421370   0.790129   0.971993   x
            x  H                30         0.597795   0.883409   0.989000   x
            x  H                31         0.820668   0.478266   0.249819   x
            x  H                32         0.694161   0.352077   0.256052   x
            x  H                33         0.873115   0.171777   0.251294   x
            x  H                34         0.425857   0.554245   0.496117   x
            x  H                35         0.421370   0.209871   0.471993   x
            x  H                36         0.597795   0.116591   0.489000   x
            x  H                37         0.679332   0.021734   0.749819   x
            x  H                38         0.805839   0.147923   0.756052   x
            x  H                39         0.626885   0.328223   0.751294   x
            x  H                40         0.074143  -0.054245  -0.003883   x
            x  H                41         1.078630   0.290129   0.971993   x
            x  H                42         0.902205   0.383409   0.989000   x
            x  H                43         0.320668   0.021734   0.750181   x
            x  H                44         0.194161   0.147923   0.743948   x
            x  H                45         0.373115   0.328223   0.748706   x
            x  H                46         0.925857  -0.054245   0.503883   x
            x  H                47        -0.078630   0.290129   0.528007   x
            x  H                48         0.097795   0.383409   0.511000   x
            xxxxxxxxxxxxxxxxxxxxxxxxxxxxxxxxxxxxxxxxxxxxxxxxxxxxxxxxxxxxxxxxx


------------------------------------------------------------------------ <-- SCF
SCF loop      Energy                           Energy gain       Timer   <-- SCF
                                               per atom          (sec)   <-- SCF
------------------------------------------------------------------------ <-- SCF
Initial  -7.04980392E+002                                        841.22  <-- SCF
      1  -7.06230870E+002                    2.60516124E-002     854.68  <-- SCF
      2  -7.06241053E+002                    2.12149947E-004     871.50  <-- SCF
      3  -7.06048404E+002                   -4.01352453E-003     888.36  <-- SCF
      4  -7.06044177E+002                   -8.80540940E-005     905.77  <-- SCF
      5  -7.06044175E+002                   -3.55327081E-008     922.60  <-- SCF
      6  -7.06044175E+002                   -3.76834264E-010     939.70  <-- SCF
      7  -7.06044175E+002                   -8.16232890E-011     956.59  <-- SCF
      8  -7.06044175E+002                    2.57697333E-011     968.69  <-- SCF
      9  -7.06044175E+002                    1.09564165E-012     980.57  <-- SCF
     10  -7.06044175E+002                    1.99390668E-013     992.46  <-- SCF
------------------------------------------------------------------------ <-- SCF
 
Final energy =  -706.0441752190     eV
[...]
              H 42 -- H 47                   0.02        2.51220
              H 41 -- H 48                   0.02        2.51220
              H 6  -- H 11                  -0.01        2.54603
              H 13 -- H 47                  -0.01        2.54603
              H 17 -- H 43                  -0.01        2.54603
              H 2  -- H 7                   -0.01        2.54603
              H 29 -- H 31                  -0.01        2.54603
              H 19 -- H 41                  -0.01        2.54603
              H 23 -- H 37                  -0.01        2.54603
              H 25 -- H 35                  -0.01        2.54603
              H 34 -- H 46                   0.01        2.56323
              H 3  -- H 40                   0.01        2.56323
              H 10 -- H 22                   0.01        2.56323
              H 16 -- H 28                   0.01        2.56323
              H 9  -- H 28                   0.03        2.58731
              H 16 -- H 21                   0.03        2.58731
              H 15 -- H 22                   0.03        2.58731
              H 10 -- H 27                   0.03        2.58731
              H 4  -- H 34                   0.03        2.58731
              H 3  -- H 33                   0.03        2.58731
              H 40 -- H 45                   0.03        2.58731
              H 39 -- H 46                   0.03        2.58731
              H 11 -- H 48                   0.02        2.60403
              H 29 -- H 42                   0.02        2.60403
              H 1  -- H 17                   0.02        2.60403
              H 23 -- H 36                   0.02        2.60403
              H 2  -- H 18                   0.02        2.60403
              H 12 -- H 47                   0.02        2.60403
              H 24 -- H 35                   0.02        2.60403
              H 30 -- H 41                   0.02        2.60403
              H 14 -- H 28                   0.00        2.61729
              H 10 -- H 20                   0.00        2.61729
              H 5  -- H 40                   0.00        2.61729
              H 32 -- H 46                   0.00        2.61729
              H 34 -- H 44                   0.00        2.61729
              H 16 -- H 26                   0.00        2.61729
              H 8  -- H 22                   0.00        2.61729
              H 3  -- H 38                   0.00        2.61729
              H 13 -- H 34                   0.02        2.62964
              H 6  -- H 22                   0.02        2.62964
              H 16 -- H 31                   0.02        2.62964
              H 28 -- H 43                   0.02        2.62964
              H 7  -- H 40                   0.02        2.62964
              H 3  -- H 19                   0.02        2.62964
              H 25 -- H 46                   0.02        2.62964
              H 10 -- H 37                   0.02        2.62964
              H 6  -- H 12                   0.01        2.63446
              H 18 -- H 43                   0.01        2.63446
              H 30 -- H 31                   0.01        2.63446
              H 24 -- H 37                   0.01        2.63446
              H 1  -- H 7                    0.01        2.63446
              H 13 -- H 48                   0.01        2.63446
              H 25 -- H 36                   0.01        2.63446
              H 19 -- H 42                   0.01        2.63446
              H 13 -- H 24                  -0.00        2.63843
              H 7  -- H 30                  -0.00        2.63843
              H 6  -- H 36                  -0.00        2.63843
              H 18 -- H 19                  -0.00        2.63843
              H 12 -- H 25                  -0.00        2.63843
              H 42 -- H 43                  -0.00        2.63843
              H 1  -- H 31                  -0.00        2.63843
              H 37 -- H 48                  -0.00        2.63843
              H 42 -- H 48                   0.02        2.65039
              H 18 -- H 24                   0.02        2.65039
              H 12 -- H 30                   0.02        2.65039
              H 1  -- H 36                   0.02        2.65039
              H 20 -- H 32                  -0.05        2.66177
              H 5  -- H 14                  -0.05        2.66177
              H 26 -- H 38                  -0.05        2.66177
              H 8  -- H 44                  -0.05        2.66177
              H 23 -- H 45                   0.03        2.66274
              H 17 -- H 39                   0.03        2.66274
              H 4  -- H 29                   0.03        2.66274
              H 11 -- H 33                   0.03        2.66274
              H 15 -- H 41                   0.03        2.66274
              H 21 -- H 47                   0.03        2.66274
              H 9  -- H 35                   0.03        2.66274
              H 2  -- H 27                   0.03        2.66274
              H 7  -- H 43                  -0.04        2.67425
              H 6  -- H 13                  -0.04        2.67425
              H 25 -- H 37                  -0.04        2.67425
              H 19 -- H 31                  -0.04        2.67425
              H 32 -- H 39                   0.02        2.67687
              H 20 -- H 27                   0.02        2.67687
              H 5  -- H 45                   0.02        2.67687
              H 9  -- H 14                   0.02        2.67687
              H 33 -- H 38                   0.02        2.67687
              H 4  -- H 44                   0.02        2.67687
              H 21 -- H 26                   0.02        2.67687
              H 8  -- H 15                   0.02        2.67687
              H 9  -- H 48                   0.04        2.68125
              H 27 -- H 42                   0.04        2.68125
              H 1  -- H 15                   0.04        2.68125
              H 21 -- H 36                   0.04        2.68125
              H 4  -- H 18                   0.04        2.68125
              H 24 -- H 33                   0.04        2.68125
              H 30 -- H 39                   0.04        2.68125
              H 12 -- H 45                   0.04        2.68125
              H 40 -- H 46                   0.04        2.69288
              H 10 -- H 28                   0.04        2.69288
              H 3  -- H 34                   0.04        2.69288
              H 16 -- H 22                   0.04        2.69288
              H 6  -- H 7                    0.02        2.70583
              H 13 -- H 43                   0.02        2.70583
              H 25 -- H 31                   0.02        2.70583
              H 19 -- H 37                   0.02        2.70583
              H 29 -- H 45                   0.04        2.72000
              H 11 -- H 39                   0.04        2.72000
              H 17 -- H 33                   0.04        2.72000
              H 4  -- H 23                   0.04        2.72000
              H 15 -- H 35                   0.04        2.72000
              H 2  -- H 21                   0.04        2.72000
              H 27 -- H 47                   0.04        2.72000
              H 9  -- H 41                   0.04        2.72000
              H 22 -- H 31                   0.04        2.72065
              H 25 -- H 40                   0.04        2.72065
              H 7  -- H 46                   0.04        2.72065
              H 10 -- H 43                   0.04        2.72065
              H 28 -- H 37                   0.04        2.72065
              H 19 -- H 34                   0.04        2.72065
              H 3  -- H 13                   0.04        2.72065
              H 6  -- H 16                   0.04        2.72065
              H 9  -- H 45                   0.01        2.73691
              H 27 -- H 39                   0.01        2.73691
              H 4  -- H 15                   0.01        2.73691
              H 21 -- H 33                   0.01        2.73691
              H 3  -- H 10                   0.04        2.75812
              H 28 -- H 34                   0.04        2.75812
              H 16 -- H 46                   0.04        2.75812
              H 22 -- H 40                   0.04        2.75812
              H 9  -- H 10                   0.03        2.76146
              H 21 -- H 22                   0.03        2.76146
              H 27 -- H 28                   0.03        2.76146
              H 15 -- H 16                   0.03        2.76146
              H 3  -- H 4                    0.03        2.76146
              H 33 -- H 34                   0.03        2.76146
              H 45 -- H 46                   0.03        2.76146
              H 39 -- H 40                   0.03        2.76146
              H 9  -- H 42                   0.05        2.77756
              H 27 -- H 48                   0.05        2.77756
              H 15 -- H 36                   0.05        2.77756
              H 1  -- H 21                   0.05        2.77756
              H 4  -- H 24                   0.05        2.77756
              H 18 -- H 33                   0.05        2.77756
              H 30 -- H 45                   0.05        2.77756
              H 12 -- H 39                   0.05        2.77756
              H 11 -- H 45                   0.04        2.77893
              H 29 -- H 39                   0.04        2.77893
              H 4  -- H 17                   0.04        2.77893
              H 23 -- H 33                   0.04        2.77893
              H 2  -- H 15                   0.04        2.77893
              H 21 -- H 35                   0.04        2.77893
              H 9  -- H 47                   0.04        2.77893
              H 27 -- H 41                   0.04        2.77893
              H 11 -- H 32                   0.01        2.78158
              H 5  -- H 29                   0.01        2.78158
              H 23 -- H 44                   0.01        2.78158
              H 17 -- H 38                   0.01        2.78158
              H 2  -- H 26                   0.01        2.78158
              H 8  -- H 35                   0.01        2.78158
              H 20 -- H 47                   0.01        2.78158
              H 14 -- H 41                   0.01        2.78158
              H 12 -- H 48                   0.02        2.79340
              H 30 -- H 42                   0.02        2.79340
              H 1  -- H 18                   0.02        2.79340
              H 24 -- H 36                   0.02        2.79340
              H 10 -- H 14                   0.02        2.80865
              H 3  -- H 44                   0.02        2.80865
              H 22 -- H 26                   0.02        2.80865
              H 20 -- H 28                   0.02        2.80865
              H 8  -- H 16                   0.02        2.80865
              H 34 -- H 38                   0.02        2.80865
              H 5  -- H 46                   0.02        2.80865
              H 32 -- H 40                   0.02        2.80865
              H 28 -- H 48                   0.01        2.82272
              H 12 -- H 40                   0.01        2.82272
              H 18 -- H 34                   0.01        2.82272
              H 16 -- H 36                   0.01        2.82272
              H 1  -- H 22                   0.01        2.82272
              H 10 -- H 42                   0.01        2.82272
              H 3  -- H 24                   0.01        2.82272
              H 30 -- H 46                   0.01        2.82272
              H 32 -- H 45                   0.01        2.82539
              H 9  -- H 20                   0.01        2.82539
              H 14 -- H 27                   0.01        2.82539
              H 5  -- H 39                   0.01        2.82539
              H 4  -- H 38                   0.01        2.82539
              H 33 -- H 44                   0.01        2.82539
              H 15 -- H 26                   0.01        2.82539
              H 8  -- H 21                   0.01        2.82539
              H 13 -- H 44                   0.01        2.82849
              H 6  -- H 8                    0.01        2.82849
              H 25 -- H 32                   0.01        2.82849
              H 5  -- H 7                    0.01        2.82849
              H 20 -- H 37                   0.01        2.82849
              H 14 -- H 43                   0.01        2.82849
              H 19 -- H 38                   0.01        2.82849
              H 26 -- H 31                   0.01        2.82849
              H 16 -- H 25                   0.03        2.83114
              H 34 -- H 43                   0.03        2.83114
              H 31 -- H 46                   0.03        2.83114
              H 7  -- H 22                   0.03        2.83114
              H 10 -- H 19                   0.03        2.83114
              H 3  -- H 37                   0.03        2.83114
              H 6  -- H 40                   0.03        2.83114
              H 13 -- H 28                   0.03        2.83114
              H 23 -- H 40                  -0.00        2.83558
              H 28 -- H 35                  -0.00        2.83558
              H 17 -- H 46                  -0.00        2.83558
              H 2  -- H 10                  -0.00        2.83558
              H 29 -- H 34                  -0.00        2.83558
              H 3  -- H 11                  -0.00        2.83558
              H 22 -- H 41                  -0.00        2.83558
              H 16 -- H 47                  -0.00        2.83558
              H 29 -- H 41                   0.04        2.83950
              H 23 -- H 35                   0.04        2.83950
              H 11 -- H 47                   0.04        2.83950
              H 2  -- H 17                   0.04        2.83950
              H 28 -- H 40                   0.04        2.85085
              H 22 -- H 34                   0.04        2.85085
              H 3  -- H 16                   0.04        2.85085
              H 10 -- H 46                   0.04        2.85085
              H 24 -- H 43                   0.03        2.85087
              H 6  -- H 30                   0.03        2.85087
              H 18 -- H 37                   0.03        2.85087
              H 7  -- H 36                   0.03        2.85087
              H 12 -- H 31                   0.03        2.85087
              H 1  -- H 25                   0.03        2.85087
              H 19 -- H 48                   0.03        2.85087
              H 13 -- H 42                   0.03        2.85087
              H 6  -- H 45                   0.02        2.86188
              H 9  -- H 13                   0.02        2.86188
              H 31 -- H 39                   0.02        2.86188
              H 4  -- H 43                   0.02        2.86188
              H 33 -- H 37                   0.02        2.86188
              H 19 -- H 27                   0.02        2.86188
              H 7  -- H 15                   0.02        2.86188
              H 21 -- H 25                   0.02        2.86188
              H 17 -- H 45                   0.04        2.86399
              H 23 -- H 39                   0.04        2.86399
              H 4  -- H 11                   0.04        2.86399
              H 29 -- H 33                   0.04        2.86399
              H 15 -- H 47                   0.04        2.86399
              H 21 -- H 41                   0.04        2.86399
              H 2  -- H 9                    0.04        2.86399
              H 27 -- H 35                   0.04        2.86399
              H 14 -- H 48                   0.02        2.87673
              H 20 -- H 42                   0.02        2.87673
              H 1  -- H 8                    0.02        2.87673
              H 26 -- H 36                   0.02        2.87673
              H 18 -- H 44                   0.02        2.87673
              H 24 -- H 38                   0.02        2.87673
              H 5  -- H 12                   0.02        2.87673
              H 30 -- H 32                   0.02        2.87673
              H 6  -- H 25                   0.02        2.90966
              H 13 -- H 37                   0.02        2.90966
              H 7  -- H 31                   0.02        2.90966
              H 19 -- H 43                   0.02        2.90966
              H 6  -- H 46                   0.04        2.91140
              H 10 -- H 13                   0.04        2.91140
              H 22 -- H 25                   0.04        2.91140
              H 31 -- H 40                   0.04        2.91140
              H 19 -- H 28                   0.04        2.91140
              H 3  -- H 43                   0.04        2.91140
              H 34 -- H 37                   0.04        2.91140
              H 7  -- H 16                   0.04        2.91140
              H 9  -- H 15                   0.02        2.91517
              H 21 -- H 27                   0.02        2.91517
              H 33 -- H 39                   0.02        2.91517
              H 4  -- H 45                   0.02        2.91517
              H 17 -- H 44                   0.03        2.92020
              H 2  -- H 8                    0.03        2.92020
              H 26 -- H 35                   0.03        2.92020
              H 23 -- H 38                   0.03        2.92020
              H 5  -- H 11                   0.03        2.92020
              H 29 -- H 32                   0.03        2.92020
              H 14 -- H 47                   0.03        2.92020
              H 20 -- H 41                   0.03        2.92020
              H 20 -- H 26                   0.01        2.92131
              H 8  -- H 14                   0.01        2.92131
              H 32 -- H 38                   0.01        2.92131
              H 5  -- H 44                   0.01        2.92131
              H 35 -- H 41                   0.02        2.92815
              H 23 -- H 29                   0.02        2.92815
              H 11 -- H 17                   0.02        2.92815
              H 2  -- H 47                   0.02        2.92815
              H 14 -- H 42                   0.03        2.95821
              H 20 -- H 48                   0.03        2.95821
              H 8  -- H 36                   0.03        2.95821
              H 1  -- H 26                   0.03        2.95821
              H 5  -- H 30                   0.03        2.95821
              H 12 -- H 32                   0.03        2.95821
              H 24 -- H 44                   0.03        2.95821
              H 18 -- H 38                   0.03        2.95821
              H 24 -- H 42                   0.00        2.96820
              H 18 -- H 48                   0.00        2.96820
              H 30 -- H 36                   0.00        2.96820
              H 1  -- H 12                   0.00        2.96820
======================================================================


Writing analysis data to Pbcn.castep_bin

Writing model to Pbcn.check
 
 A BibTeX formatted list of references used in this run has been written to 
 Pbcn.bib
 
Initialisation time =      5.42 s
Calculation time    =   6113.63 s
Finalisation time   =     19.78 s
Total time          =   6138.83 s
Peak Memory Use     = 803772 kB
  
Overall parallel efficiency rating: Excellent (97%)                             
  
Data was distributed by:-
k-point (32-way); efficiency rating: Excellent (97%)                            
