 +-------------------------------------------------+
 |                                                 |
 |      CCC   AA    SSS  TTTTT  EEEEE  PPPP        |
 |     C     A  A  S       T    E      P   P       |
 |     C     AAAA   SS     T    EEE    PPPP        |
 |     C     A  A     S    T    E      P           |
 |      CCC  A  A  SSS     T    EEEEE  P           |
 |                                                 |
 +-------------------------------------------------+
 |                                                 |
 | Welcome to Academic Release CASTEP version 18.1 |          
 | Ab Initio Total Energy Program                  |
 |                                                 |
 | Authors:                                        |
 | M. Segall, M. Probert, C. Pickard, P. Hasnip,   |
 | S. Clark, K. Refson, J. R. Yates, M. Payne      |
 |                                                 |
 | Contributors:                                   |
 | P. Lindan, P. Haynes, J. White, V. Milman,      |
 | N. Govind, M. Gibson, P. Tulip, V. Cocula,      |
 | B. Montanari, D. Quigley, M. Glover,            |
 | L. Bernasconi, A. Perlov, M. Plummer,           |
 | E. McNellis, J. Meyer, J. Gale, D. Jochym       |
 | J. Aarons, B. Walker, R. Gillen, D. Jones       |
 | T. Green, I. J. Bush, C. J. Armstrong,          |
 | E. J. Higgins, E. L. Brown, M. S. McFly,        |
 | J. Wilkins, B-C. Shih, P. J. P. Byrne           |
 |                                                 |
 | Copyright (c) 2000 - 2017                       |
 |                                                 |
 |     Distributed under the terms of an           |
 |     Agreement between the United Kingdom        |
 |     Car-Parrinello (UKCP) Consortium,           |
 |     Daresbury Laboratory and Accelrys, Inc.     |
 |                                                 |
 | Please cite                                     |
 |                                                 |
 |     "First principles methods using CASTEP"     |
 |                                                 |
 |         Zeitschrift fuer Kristallographie       |
 |           220(5-6) pp. 567-570 (2005)           |
 |                                                 |
 | S. J. Clark, M. D. Segall, C. J. Pickard,       |
 | P. J. Hasnip, M. J. Probert, K. Refson,         |
 | M. C. Payne                                     |
 |                                                 |
 |       in all publications arising from          |
 |              your use of CASTEP                 |
 |                                                 |
 +-------------------------------------------------+


 Compiled for linux_x86_64_gfortran4.8 on Thu, 19 Jul 2018 15:42:32 +0100
 from code version 70483bd0ad64+  Sun, 10 Dec 2017 12:18:29 +0000
 Compiler: GNU Fortran 4.8.5; Optimisation: fast
 MATHLIBS: Intel MKL(2018.0.0) (LAPACK version 3.7.0)
 FFT Lib : mkl
 Fundamental constants values: CODATA 2014

 Run started: Fri, 28 Aug 2020 01:23:52 +0100

 Atomic calculation performed for H: 1s1

 Converged in 41 iterations to an ae energy of -12.488 eV

   ============================================================                
   | Pseudopotential Report - Date of generation 28-08-2020   |                
   ------------------------------------------------------------                
   | Element: H Ionic charge:  1.00 Level of theory: PBE      |                
   | Atomic Solver: Koelling-Harmon                           |                
   |                                                          |                
   |               Reference Electronic Structure             |                
   |         Orbital         Occupation         Energy        |                
   |            1s              1.000           -0.239        |                
   |                                                          |                
   |                 Pseudopotential Definition               |                
   |        Beta     l      e      Rc     scheme   norm       |                
   |         loc     0   -0.239   0.702     qc      1         |                
   |                                                          |                
   | No charge augmentation                                   |                
   | No partial core correction                               |                
   ------------------------------------------------------------                
   | "0|0.7|2|6|8|10L(qc=10)"                                 |                
   ------------------------------------------------------------                
   |      Author: Chris J. Pickard, Cambridge University      |                
   ============================================================                

 Pseudo atomic calculation performed for H 1s1

 Converged in 24 iterations to a total energy of -12.4855 eV

 Calculation parallelised over 32 processes.
 Data is distributed by k-point(32-way)

 ************************************ Title ************************************
 

 ***************************** General Parameters ******************************
  
 output verbosity                               : normal  (1)
 write checkpoint data to                       : Pbcn.check
 type of calculation                            : geometry optimization
 stress calculation                             : on
 density difference calculation                 : off
 electron localisation func (ELF) calculation   : off
 Hirshfeld analysis                             : off
 unlimited duration calculation
 timing information                             : on
 memory usage estimate                          : on
 write extra output files                       : on
 write final potential to formatted file        : off
 write final density to formatted file          : off
 write structure in CELL formatted file         : on
 write BibTeX reference list                    : on
 write OTFG pseudopotential files               : on
 write electrostatic potential file             : on
 write bands file                               : on
 checkpoint writing                             : both castep_bin and check files
  
 output         length unit                     : A
 output           mass unit                     : amu
 output           time unit                     : ps
 output         charge unit                     : e
 output           spin unit                     : hbar/2
 output         energy unit                     : eV
 output          force unit                     : eV/A
 output       velocity unit                     : A/ps
 output       pressure unit                     : GPa
 output     inv_length unit                     : 1/A
 output      frequency unit                     : cm-1
 output force constant unit                     : eV/A**2
 output         volume unit                     : A**3
 output   IR intensity unit                     : (D/A)**2/amu
 output         dipole unit                     : D
 output         efield unit                     : eV/A/e
 output        entropy unit                     : J/mol/K
  
 wavefunctions paging                           : none
 random number generator seed                   : randomised (12353105)
 data distribution                              : optimal for this architecture
 optimization strategy                          : maximize speed(+++)

 *********************** Exchange-Correlation Parameters ***********************
  
 using functional                               : Perdew Burke Ernzerhof
 relativistic treatment                         : Koelling-Harmon
 DFT+D: Semi-empirical dispersion correction    : off

 ************************* Pseudopotential Parameters **************************
  
 pseudopotential representation                 : reciprocal space
 <beta|phi> representation                      : reciprocal space
 spin-orbit coupling                            : off

 **************************** Basis Set Parameters *****************************
  
 plane wave basis set cut-off                   :  1600.0000   eV
 size of standard grid                          :     2.0000
 size of   fine   gmax                          :    40.9853   1/A
 finite basis set correction                    : automatic
 number of sample energies                      :          3
           sample  spacing                      :     5.0000   eV

 **************************** Electronic Parameters ****************************
  
 number of  electrons                           :  48.00    
 net charge of system                           :  0.000    
 treating system as non-spin-polarized
 number of bands                                :         24

 ********************* Electronic Minimization Parameters **********************
  
 Method: Treating system as non-metallic,
         and number of  SD  steps               :          1
         and number of  CG  steps               :          4
  
 total energy / atom convergence tol.           : 0.1000E-10   eV
 eigen-energy convergence tolerance             : 0.2000E-10   eV
 max force / atom convergence tol.              : ignored
 convergence tolerance window                   :          3   cycles
 max. number of SCF cycles                      :        100
 periodic dipole correction                     : NONE

 ************************** Density Mixing Parameters **************************
  
 density-mixing scheme                          : Broyden
 max. length of mixing history                  :         20
 charge density mixing amplitude                : 0.8000    
 cut-off energy for mixing                      :  1600.       eV

 *********************** Population Analysis Parameters ************************
  
 Population analysis with cutoff                :  3.000       A
 Population analysis output                     : summary and pdos components

 ********************** Geometry Optimization Parameters ***********************
  
 optimization method                            : LBFGS
 max. no. of LBFGS updates                      : unbounded
 variable cell method                           : fixed basis quality
 max. number of steps                           :        100
 estimated bulk modulus                         :  500.0       GPa
 estimated <frequency>                          :  1668.       cm-1
 geom line minimiser                            : on
 with line minimiser tolerance                  :     0.4000
 total energy convergence tolerance             : 0.1000E-08   eV/atom
        max ionic |force| tolerance             : 0.1000E-04   eV/A
 max ionic |displacement| tolerance             : 0.1000E-04   A
   max |stress component| tolerance             : 0.1000E-04   GPa
 convergence tolerance window                   :          2   steps
 backup results every                           :      14400   seconds
 write geom trajectory file                     : on

 *******************************************************************************
  

                           -------------------------------
                                      Unit Cell
                           -------------------------------
        Real Lattice(A)                      Reciprocal Lattice(1/A)
     3.1162960    -0.0000000     0.0000000        2.016235045   0.000000000   0.000000000
    -0.0000000     5.4149884     0.0000000        0.000000000   1.160332183   0.000000000
     0.0000000     0.0000000     5.5142870        0.000000000   0.000000000   1.139437478

                       Lattice parameters(A)       Cell Angles
                    a =      3.116296          alpha =   90.000000
                    b =      5.414988          beta  =   90.000000
                    c =      5.514287          gamma =   90.000000

                       Current cell volume =            93.051978       A**3
                                   density =             0.519937   AMU/A**3
                                           =             0.863375     g/cm^3

                           -------------------------------
                                     Cell Contents
                           -------------------------------
                         Total number of ions in cell =   48
                      Total number of species in cell =    1
                        Max number of any one species =   48

            xxxxxxxxxxxxxxxxxxxxxxxxxxxxxxxxxxxxxxxxxxxxxxxxxxxxxxxxxxxx
            x  Element    Atom        Fractional coordinates of atoms  x
            x            Number           u          v          w      x
            x----------------------------------------------------------x
            x  H            1         0.401960   0.118924   0.011793   x 
            x  H            2         0.574767   0.206393   0.036800   x 
            x  H            3         0.569760   0.553374   0.003520   x 
            x  H            4         0.125108   0.170743   0.247823   x 
            x  H            5         0.305724   0.353577   0.241770   x 
            x  H            6         0.181180   0.478019   0.250835   x 
            x  H            7         0.181180   0.521981   0.750835   x 
            x  H            8         0.305724   0.646423   0.741770   x 
            x  H            9         0.125108   0.829257   0.747823   x 
            x  H           10         0.569760   0.446626   0.503520   x 
            x  H           11         0.574767   0.793607   0.536800   x 
            x  H           12         0.401960   0.881076   0.511793   x 
            x  H           13         0.318820   0.978019   0.250835   x 
            x  H           14         0.194276   0.853577   0.241770   x 
            x  H           15         0.374892   0.670743   0.247823   x 
            x  H           16        -0.069760   0.053374   0.003520   x 
            x  H           17        -0.074767   0.706393   0.036800   x 
            x  H           18         0.098040   0.618924   0.011793   x 
            x  H           19         0.681180   0.978019   0.249165   x 
            x  H           20         0.805724   0.853577   0.258230   x 
            x  H           21         0.625108   0.670743   0.252177   x 
            x  H           22         1.069760   0.053374   0.496480   x 
            x  H           23         1.074767   0.706393   0.463200   x 
            x  H           24         0.901960   0.618924   0.488207   x 
            x  H           25         0.818820   0.521981   0.749165   x 
            x  H           26         0.694276   0.646423   0.758230   x 
            x  H           27         0.874892   0.829257   0.752177   x 
            x  H           28         0.430240   0.446626  -0.003520   x 
            x  H           29         0.425233   0.793607   0.963200   x 
            x  H           30         0.598040   0.881076   0.988207   x 
            x  H           31         0.818820   0.478019   0.249165   x 
            x  H           32         0.694276   0.353577   0.258230   x 
            x  H           33         0.874892   0.170743   0.252177   x 
            x  H           34         0.430240   0.553374   0.496480   x 
            x  H           35         0.425233   0.206393   0.463200   x 
            x  H           36         0.598040   0.118924   0.488207   x 
            x  H           37         0.681180   0.021981   0.749165   x 
            x  H           38         0.805724   0.146423   0.758230   x 
            x  H           39         0.625108   0.329257   0.752177   x 
            x  H           40         0.069760  -0.053374  -0.003520   x 
            x  H           41         1.074767   0.293607   0.963200   x 
            x  H           42         0.901960   0.381076   0.988207   x 
            x  H           43         0.318820   0.021981   0.750835   x 
            x  H           44         0.194276   0.146423   0.741770   x 
            x  H           45         0.374892   0.329257   0.747823   x 
            x  H           46         0.930240  -0.053374   0.503520   x 
            x  H           47        -0.074767   0.293607   0.536800   x 
            x  H           48         0.098040   0.381076   0.511793   x 
            xxxxxxxxxxxxxxxxxxxxxxxxxxxxxxxxxxxxxxxxxxxxxxxxxxxxxxxxxxxx


                         No user defined ionic velocities

                           -------------------------------
                                   Details of Species
                           -------------------------------

                               Mass of species in AMU
                                    H    1.0078250

                          Electric Quadrupole Moment (Barn)
                                    H    0.0028600 Isotope  2

                          Files used for pseudopotentials:
                                    H 0|0.7|2|6|8|10L(qc=10)

                           -------------------------------
                              k-Points For BZ Sampling
                           -------------------------------
                       MP grid size for SCF calculation is 12 12 12
                            with an offset of   0.000  0.000  0.000
                       Number of kpoints used =           216

                           -------------------------------
                               Symmetry and Constraints
                           -------------------------------

                      Maximum deviation from symmetry = 0.162320E-13     ANG

                      Number of symmetry operations   =           8
                      Number of ionic constraints     =           3
                      Point group of crystal =     8: D2h, mmm, 2/m 2/m 2/m
                      Space group of crystal =    60: Pbcn, -P 2n 2ab

             Set iprint > 1 for details on symmetry rotations/translations

                         Centre of mass is constrained
             Set iprint > 1 for details of linear ionic constraints

                         Number of cell constraints= 3
                         Cell constraints are:  1 2 3 0 0 0

                         External pressure/stress (GPa)
                        120.00000   0.00000   0.00000
                                  120.00000   0.00000
                                            120.00000
  
+---------------- MEMORY AND SCRATCH DISK ESTIMATES PER PROCESS --------------+
|                                                     Memory          Disk    |
| Baseline code, static data and system overhead      479.0 MB         0.0 MB |
| BLAS internal memory storage                          0.0 MB         0.0 MB |
| Model and support data                              108.0 MB         0.0 MB |
| Electronic energy minimisation requirements         140.7 MB         0.0 MB |
| Force calculation requirements                       26.7 MB         0.0 MB |
| Stress calculation requirements                      33.8 MB         0.0 MB |
|                                               ----------------------------- |
| Approx. total storage required per process          727.7 MB         0.0 MB |
|                                                                             |
| Requirements will fluctuate during execution and may exceed these estimates |
+-----------------------------------------------------------------------------+
Calculating finite basis set correction with  3 cut-off energies.
Calculating total energy with cut-off of 1590.000 eV.
------------------------------------------------------------------------ <-- SCF
SCF loop      Energy                           Energy gain       Timer   <-- SCF
                                               per atom          (sec)   <-- SCF
------------------------------------------------------------------------ <-- SCF
Initial   1.14388076E+003                                         13.51  <-- SCF
      1  -5.89706710E+002                    3.61164057E+001      32.99  <-- SCF
      2  -7.12581258E+002                    2.55988641E+000      46.57  <-- SCF
      3  -7.12796001E+002                    4.47382682E-003      65.87  <-- SCF
      4  -7.12741103E+002                   -1.14371739E-003      85.34  <-- SCF
      5  -7.12742825E+002                    3.58656395E-005     104.65  <-- SCF
      6  -7.12742949E+002                    2.58501465E-006     123.96  <-- SCF
      7  -7.12742949E+002                    1.59844852E-008     143.27  <-- SCF
      8  -7.12742950E+002                    8.64757328E-010     162.70  <-- SCF
      9  -7.12742950E+002                    3.57130841E-011     177.07  <-- SCF
     10  -7.12742950E+002                    1.19634401E-012     190.99  <-- SCF
     11  -7.12742950E+002                    5.90115816E-013     204.77  <-- SCF
------------------------------------------------------------------------ <-- SCF
 
Final energy =  -712.7429495047     eV
(energy not corrected for finite basis set)
 
Calculating total energy with cut-off of 1595.000 eV.
------------------------------------------------------------------------ <-- SCF
SCF loop      Energy                           Energy gain       Timer   <-- SCF
                                               per atom          (sec)   <-- SCF
------------------------------------------------------------------------ <-- SCF
Initial  -7.12742950E+002                                        212.38  <-- SCF
      1  -7.12743061E+002                    2.33052381E-006     227.77  <-- SCF
      2  -7.12743061E+002                    1.80861434E-012     241.60  <-- SCF
      3  -7.12743061E+002                    5.51776414E-010     255.36  <-- SCF
      4  -7.12743061E+002                    3.09216659E-011     269.36  <-- SCF
      5  -7.12743061E+002                    1.82069863E-012     283.12  <-- SCF
      6  -7.12743061E+002                   -4.87399411E-013     296.94  <-- SCF
------------------------------------------------------------------------ <-- SCF
 
Final energy =  -712.7430613980     eV
(energy not corrected for finite basis set)
 
Calculating total energy with cut-off of 1600.000 eV.
------------------------------------------------------------------------ <-- SCF
SCF loop      Energy                           Energy gain       Timer   <-- SCF
                                               per atom          (sec)   <-- SCF
------------------------------------------------------------------------ <-- SCF
Initial  -7.12743061E+002                                        304.58  <-- SCF
      1  -7.12743168E+002                    2.21462362E-006     320.10  <-- SCF
      2  -7.12743168E+002                    1.82875481E-012     333.89  <-- SCF
      3  -7.12743168E+002                    5.23628091E-010     347.67  <-- SCF
      4  -7.12743168E+002                    2.87545512E-011     361.54  <-- SCF
      5  -7.12743168E+002                    1.99592073E-012     375.36  <-- SCF
      6  -7.12743168E+002                   -6.04214146E-014     389.19  <-- SCF
------------------------------------------------------------------------ <-- SCF
 
Final energy =  -712.7431677267     eV
(energy not corrected for finite basis set)
 
 For future reference: finite basis dEtot/dlog(Ecut) =      -0.034790eV
 Total energy corrected for finite basis set =    -712.743167 eV
 
+---------------- MEMORY AND SCRATCH DISK ESTIMATES PER PROCESS --------------+
|                                                     Memory          Disk    |
| Model and support data                              108.3 MB         0.0 MB |
| Electronic energy minimisation requirements         140.7 MB         0.0 MB |
| Geometry minimisation requirements                  179.5 MB         0.0 MB |
|                                               ----------------------------- |
| Approx. total storage required per process          428.5 MB         0.0 MB |
|                                                                             |
| Requirements will fluctuate during execution and may exceed these estimates |
+-----------------------------------------------------------------------------+
 

 ******************************** Symmetrised Forces ********************************
 *                                                                                  *
 *                           Cartesian components (eV/A)                            *
 * -------------------------------------------------------------------------------- *
 *                         x                    y                    z              *
 *                                                                                  *
 * H               1     -0.00000             -0.00000             -0.00000         *
 * H               2      0.00000              0.00000              0.00000         *
 * H               3     -0.00000             -0.00000             -0.00000         *
 * H               4      0.00000             -0.00000              0.00000         *
 * H               5     -0.00000             -0.00000             -0.00000         *
 * H               6      0.00000             -0.00000             -0.00000         *
 * H               7      0.00000              0.00000             -0.00000         *
 * H               8     -0.00000              0.00000             -0.00000         *
 * H               9      0.00000              0.00000              0.00000         *
 * H              10     -0.00000              0.00000             -0.00000         *
 * H              11      0.00000             -0.00000              0.00000         *
 * H              12     -0.00000              0.00000             -0.00000         *
 * H              13     -0.00000             -0.00000             -0.00000         *
 * H              14      0.00000             -0.00000             -0.00000         *
 * H              15     -0.00000             -0.00000              0.00000         *
 * H              16      0.00000             -0.00000             -0.00000         *
 * H              17     -0.00000              0.00000              0.00000         *
 * H              18      0.00000             -0.00000             -0.00000         *
 * H              19      0.00000             -0.00000              0.00000         *
 * H              20     -0.00000             -0.00000              0.00000         *
 * H              21      0.00000             -0.00000             -0.00000         *
 * H              22     -0.00000             -0.00000              0.00000         *
 * H              23      0.00000              0.00000             -0.00000         *
 * H              24     -0.00000             -0.00000              0.00000         *
 * H              25     -0.00000              0.00000              0.00000         *
 * H              26      0.00000              0.00000              0.00000         *
 * H              27     -0.00000              0.00000             -0.00000         *
 * H              28      0.00000              0.00000              0.00000         *
 * H              29     -0.00000             -0.00000             -0.00000         *
 * H              30      0.00000              0.00000              0.00000         *
 * H              31     -0.00000             -0.00000              0.00000         *
 * H              32      0.00000             -0.00000              0.00000         *
 * H              33     -0.00000             -0.00000             -0.00000         *
 * H              34      0.00000             -0.00000              0.00000         *
 * H              35     -0.00000              0.00000             -0.00000         *
 * H              36      0.00000             -0.00000              0.00000         *
 * H              37      0.00000              0.00000              0.00000         *
 * H              38     -0.00000              0.00000              0.00000         *
 * H              39      0.00000              0.00000             -0.00000         *
 * H              40     -0.00000              0.00000              0.00000         *
 * H              41      0.00000             -0.00000             -0.00000         *
 * H              42     -0.00000              0.00000              0.00000         *
 * H              43     -0.00000              0.00000             -0.00000         *
 * H              44      0.00000              0.00000             -0.00000         *
 * H              45     -0.00000              0.00000              0.00000         *
 * H              46      0.00000              0.00000             -0.00000         *
 * H              47     -0.00000             -0.00000              0.00000         *
 * H              48      0.00000              0.00000             -0.00000         *
 *                                                                                  *
 ************************************************************************************

 *********** Symmetrised Stress Tensor ***********
 *                                               *
 *          Cartesian components (GPa)           *
 * --------------------------------------------- *
 *             x             y             z     *
 *                                               *
 *  x   -149.999165     -0.000000      0.000000  *
 *  y     -0.000000   -149.999155      0.000000  *
 *  z      0.000000      0.000000   -149.999158  *
 *                                               *
 *  Pressure:  149.9992                          *
 *                                               *
 *************************************************
 LBFGS: finished iteration     0 with enthalpy= -6.43048995E+002 eV
  
 +-----------+-----------------+-----------------+------------+-----+ <-- LBFGS
 | Parameter |      value      |    tolerance    |    units   | OK? | <-- LBFGS
 +-----------+-----------------+-----------------+------------+-----+ <-- LBFGS
 |  dE/ion   |   0.000000E+000 |   1.000000E-009 |         eV | No  | <-- LBFGS
 |  |F|max   |   5.159698E-007 |   1.000000E-005 |       eV/A | Yes | <-- LBFGS
 |  |dR|max  |   0.000000E+000 |   1.000000E-005 |          A | No  | <-- LBFGS
 |   Smax    |   2.999917E+001 |   1.000000E-005 |        GPa | No  | <-- LBFGS
 +-----------+-----------------+-----------------+------------+-----+ <-- LBFGS
  

================================================================================
 Starting LBFGS iteration          1 ...
================================================================================
  
 +------------+-------------+-------------+-----------------+ <-- min LBFGS
 |    Step    |   lambda    |   F.delta'  |    enthalpy     | <-- min LBFGS
 +------------+-------------+-------------+-----------------+ <-- min LBFGS
 |  previous  |    0.000000 |    1.109007 |     -643.048995 | <-- min LBFGS
 +------------+-------------+-------------+-----------------+ <-- min LBFGS
  

--------------------------------------------------------------------------------
 LBFGS: starting iteration         1 with trial guess (lambda=  1.000000)
--------------------------------------------------------------------------------
 
+---------------- MEMORY AND SCRATCH DISK ESTIMATES PER PROCESS --------------+
|                                                     Memory          Disk    |
| Model and support data                              114.2 MB         0.0 MB |
| Electronic energy minimisation requirements         149.7 MB         0.0 MB |
| Geometry minimisation requirements                  190.9 MB         0.0 MB |
|                                               ----------------------------- |
| Approx. total storage required per process          454.8 MB         0.0 MB |
|                                                                             |
| Requirements will fluctuate during execution and may exceed these estimates |
+-----------------------------------------------------------------------------+
 

                           -------------------------------
                                      Unit Cell
                           -------------------------------
        Real Lattice(A)              Reciprocal Lattice(1/A)
     3.1786202    -0.0000000     0.0000000        1.976702103   0.000000000   0.000000000
    -0.0000000     5.5232851     0.0000000        0.000000000   1.137581200   0.000000000
     0.0000000     0.0000000     5.6245697        0.000000000   0.000000000   1.117096181

                       Lattice parameters(A)       Cell Angles
                    a =      3.178620          alpha =   90.000000
                    b =      5.523285          beta  =   90.000000
                    c =      5.624570          gamma =   90.000000

                Current cell volume =            98.747340 A**3

                           -------------------------------
                                     Cell Contents
                           -------------------------------

            xxxxxxxxxxxxxxxxxxxxxxxxxxxxxxxxxxxxxxxxxxxxxxxxxxxxxxxxxxxxxxxxx
            x  Element         Atom        Fractional coordinates of atoms  x
            x                 Number           u          v          w      x
            x---------------------------------------------------------------x
            x  H                 1         0.401960   0.118924   0.011793   x
            x  H                 2         0.574767   0.206393   0.036800   x
            x  H                 3         0.569760   0.553374   0.003520   x
            x  H                 4         0.125108   0.170743   0.247823   x
            x  H                 5         0.305724   0.353577   0.241770   x
            x  H                 6         0.181180   0.478019   0.250835   x
            x  H                 7         0.181180   0.521981   0.750835   x
            x  H                 8         0.305724   0.646423   0.741770   x
            x  H                 9         0.125108   0.829257   0.747823   x
            x  H                10         0.569760   0.446626   0.503520   x
            x  H                11         0.574767   0.793607   0.536800   x
            x  H                12         0.401960   0.881076   0.511793   x
            x  H                13         0.318820   0.978019   0.250835   x
            x  H                14         0.194276   0.853577   0.241770   x
            x  H                15         0.374892   0.670743   0.247823   x
            x  H                16        -0.069760   0.053374   0.003520   x
            x  H                17        -0.074767   0.706393   0.036800   x
            x  H                18         0.098040   0.618924   0.011793   x
            x  H                19         0.681180   0.978019   0.249165   x
            x  H                20         0.805724   0.853577   0.258230   x
            x  H                21         0.625108   0.670743   0.252177   x
            x  H                22         1.069760   0.053374   0.496480   x
            x  H                23         1.074767   0.706393   0.463200   x
            x  H                24         0.901960   0.618924   0.488207   x
            x  H                25         0.818820   0.521981   0.749165   x
            x  H                26         0.694276   0.646423   0.758230   x
            x  H                27         0.874892   0.829257   0.752177   x
            x  H                28         0.430240   0.446626  -0.003520   x
            x  H                29         0.425233   0.793607   0.963200   x
            x  H                30         0.598040   0.881076   0.988207   x
            x  H                31         0.818820   0.478019   0.249165   x
            x  H                32         0.694276   0.353577   0.258230   x
            x  H                33         0.874892   0.170743   0.252177   x
            x  H                34         0.430240   0.553374   0.496480   x
            x  H                35         0.425233   0.206393   0.463200   x
            x  H                36         0.598040   0.118924   0.488207   x
            x  H                37         0.681180   0.021981   0.749165   x
            x  H                38         0.805724   0.146423   0.758230   x
            x  H                39         0.625108   0.329257   0.752177   x
            x  H                40         0.069760  -0.053374  -0.003520   x
            x  H                41         1.074767   0.293607   0.963200   x
            x  H                42         0.901960   0.381076   0.988207   x
            x  H                43         0.318820   0.021981   0.750835   x
            x  H                44         0.194276   0.146423   0.741770   x
            x  H                45         0.374892   0.329257   0.747823   x
            x  H                46         0.930240  -0.053374   0.503520   x
            x  H                47        -0.074767   0.293607   0.536800   x
            x  H                48         0.098040   0.381076   0.511793   x
            xxxxxxxxxxxxxxxxxxxxxxxxxxxxxxxxxxxxxxxxxxxxxxxxxxxxxxxxxxxxxxxxx


------------------------------------------------------------------------ <-- SCF
SCF loop      Energy                           Energy gain       Timer   <-- SCF
                                               per atom          (sec)   <-- SCF
------------------------------------------------------------------------ <-- SCF
Initial  -7.17486995E+002                                        410.12  <-- SCF
      1  -7.17623453E+002                    2.84287343E-003     427.30  <-- SCF
      2  -7.17624007E+002                    1.15545073E-005     449.62  <-- SCF
      3  -7.17620729E+002                   -6.82988697E-005     471.26  <-- SCF
      4  -7.17620650E+002                   -1.64270235E-006     493.20  <-- SCF
      5  -7.17620653E+002                    6.41525578E-008     515.01  <-- SCF
      6  -7.17620654E+002                    6.04908388E-009     536.83  <-- SCF
      7  -7.17620654E+002                    3.55580025E-011     552.42  <-- SCF
      8  -7.17620654E+002                    2.19329735E-012     567.83  <-- SCF
      9  -7.17620654E+002                   -3.82668959E-014     583.25  <-- SCF
------------------------------------------------------------------------ <-- SCF
 
Final energy =  -717.6206535749     eV
(energy not corrected for finite basis set)
 

 ******************************** Symmetrised Forces ********************************
 *                                                                                  *
 *                           Cartesian components (eV/A)                            *
 * -------------------------------------------------------------------------------- *
 *                         x                    y                    z              *
 *                                                                                  *
 * H               1      0.28688              0.25530              0.07530         *
 * H               2     -0.29124             -0.25488             -0.07540         *
 * H               3     -0.24174             -0.32244             -0.02223         *
 * H               4     -0.31643              0.00970              0.01153         *
 * H               5     -0.16765              0.26934              0.02546         *
 * H               6      0.14803             -0.28119             -0.02174         *
 * H               7      0.14803              0.28119             -0.02174         *
 * H               8     -0.16765             -0.26934              0.02546         *
 * H               9     -0.31643             -0.00970              0.01153         *
 * H              10     -0.24174              0.32244             -0.02223         *
 * H              11     -0.29124              0.25488             -0.07540         *
 * H              12      0.28688             -0.25530              0.07530         *
 * H              13     -0.14803             -0.28119             -0.02174         *
 * H              14      0.16765              0.26934              0.02546         *
 * H              15      0.31643              0.00970              0.01153         *
 * H              16      0.24174             -0.32244             -0.02223         *
 * H              17      0.29124             -0.25488             -0.07540         *
 * H              18     -0.28688              0.25530              0.07530         *
 * H              19      0.14803             -0.28119              0.02174         *
 * H              20     -0.16765              0.26934             -0.02546         *
 * H              21     -0.31643              0.00970             -0.01153         *
 * H              22     -0.24174             -0.32244              0.02223         *
 * H              23     -0.29124             -0.25488              0.07540         *
 * H              24      0.28688              0.25530             -0.07530         *
 * H              25     -0.14803              0.28119              0.02174         *
 * H              26      0.16765             -0.26934             -0.02546         *
 * H              27      0.31643             -0.00970             -0.01153         *
 * H              28      0.24174              0.32244              0.02223         *
 * H              29      0.29124              0.25488              0.07540         *
 * H              30     -0.28688             -0.25530             -0.07530         *
 * H              31     -0.14803             -0.28119              0.02174         *
 * H              32      0.16765              0.26934             -0.02546         *
 * H              33      0.31643              0.00970             -0.01153         *
 * H              34      0.24174             -0.32244              0.02223         *
 * H              35      0.29124             -0.25488              0.07540         *
 * H              36     -0.28688              0.25530             -0.07530         *
 * H              37      0.14803              0.28119              0.02174         *
 * H              38     -0.16765             -0.26934             -0.02546         *
 * H              39     -0.31643             -0.00970             -0.01153         *
 * H              40     -0.24174              0.32244              0.02223         *
 * H              41     -0.29124              0.25488              0.07540         *
 * H              42      0.28688             -0.25530             -0.07530         *
 * H              43     -0.14803              0.28119             -0.02174         *
 * H              44      0.16765             -0.26934              0.02546         *
 * H              45      0.31643             -0.00970              0.01153         *
 * H              46      0.24174              0.32244             -0.02223         *
 * H              47      0.29124              0.25488             -0.07540         *
 * H              48     -0.28688             -0.25530              0.07530         *
 *                                                                                  *
 ************************************************************************************

 *********** Symmetrised Stress Tensor ***********
 *                                               *
 *          Cartesian components (GPa)           *
 * --------------------------------------------- *
 *             x             y             z     *
 *                                               *
 *  x   -123.101827     -0.000000      0.000000  *
 *  y     -0.000000   -123.081460      0.000000  *
 *  z      0.000000      0.000000   -129.530432  *
 *                                               *
 *  Pressure:  125.2379                          *
 *                                               *
 *************************************************
  
 +------------+-------------+-------------+-----------------+ <-- min LBFGS
 |    Step    |   lambda    |   F.delta'  |    enthalpy     | <-- min LBFGS
 +------------+-------------+-------------+-----------------+ <-- min LBFGS
 |  previous  |    0.000000 |    1.109007 |     -643.048995 | <-- min LBFGS
 | trial step |    1.000000 |    0.201457 |     -643.660763 | <-- min LBFGS
 +------------+-------------+-------------+-----------------+ <-- min LBFGS
  
 LBFGS: finished iteration     1 with enthalpy= -6.43660763E+002 eV
  
 +-----------+-----------------+-----------------+------------+-----+ <-- LBFGS
 | Parameter |      value      |    tolerance    |    units   | OK? | <-- LBFGS
 +-----------+-----------------+-----------------+------------+-----+ <-- LBFGS
 |  dE/ion   |   1.274516E-002 |   1.000000E-009 |         eV | No  | <-- LBFGS
 |  |F|max   |   4.036130E-001 |   1.000000E-005 |       eV/A | No  | <-- LBFGS
 |  |dR|max  |   5.105057E-008 |   1.000000E-005 |          A | Yes | <-- LBFGS
 |   Smax    |   9.530432E+000 |   1.000000E-005 |        GPa | No  | <-- LBFGS
 +-----------+-----------------+-----------------+------------+-----+ <-- LBFGS
  

================================================================================
 Starting LBFGS iteration          2 ...
================================================================================
  
 +------------+-------------+-------------+-----------------+ <-- min LBFGS
 |    Step    |   lambda    |   F.delta'  |    enthalpy     | <-- min LBFGS
 +------------+-------------+-------------+-----------------+ <-- min LBFGS
 |  previous  |    0.000000 |    0.416800 |     -643.660763 | <-- min LBFGS
 +------------+-------------+-------------+-----------------+ <-- min LBFGS
  

--------------------------------------------------------------------------------
 LBFGS: starting iteration         2 with trial guess (lambda=  1.000000)
--------------------------------------------------------------------------------
 
+---------------- MEMORY AND SCRATCH DISK ESTIMATES PER PROCESS --------------+
|                                                     Memory          Disk    |
| Model and support data                              120.4 MB         0.0 MB |
| Electronic energy minimisation requirements         159.9 MB         0.0 MB |
| Geometry minimisation requirements                  203.9 MB         0.0 MB |
|                                               ----------------------------- |
| Approx. total storage required per process          484.3 MB         0.0 MB |
|                                                                             |
| Requirements will fluctuate during execution and may exceed these estimates |
+-----------------------------------------------------------------------------+
 

                           -------------------------------
                                      Unit Cell
                           -------------------------------
        Real Lattice(A)              Reciprocal Lattice(1/A)
     3.2435217    -0.0000000     0.0000000        1.937149128   0.000000000   0.000000000
    -0.0000000     5.6359668     0.0000000        0.000000000   1.114837177   0.000000000
     0.0000000     0.0000000     5.7694583        0.000000000   0.000000000   1.089042499

                       Lattice parameters(A)       Cell Angles
                    a =      3.243522          alpha =   90.000000
                    b =      5.635967          beta  =   90.000000
                    c =      5.769458          gamma =   90.000000

                Current cell volume =           105.467895 A**3

                           -------------------------------
                                     Cell Contents
                           -------------------------------

            xxxxxxxxxxxxxxxxxxxxxxxxxxxxxxxxxxxxxxxxxxxxxxxxxxxxxxxxxxxxxxxxx
            x  Element         Atom        Fractional coordinates of atoms  x
            x                 Number           u          v          w      x
            x---------------------------------------------------------------x
            x  H                 1         0.413090   0.124624   0.013444   x
            x  H                 2         0.563468   0.200702   0.035147   x
            x  H                 3         0.560381   0.546175   0.003033   x
            x  H                 4         0.112831   0.170959   0.248075   x
            x  H                 5         0.299219   0.359590   0.242329   x
            x  H                 6         0.186923   0.471741   0.250358   x
            x  H                 7         0.186923   0.528259   0.750358   x
            x  H                 8         0.299219   0.640410   0.742329   x
            x  H                 9         0.112831   0.829041   0.748075   x
            x  H                10         0.560381   0.453825   0.503033   x
            x  H                11         0.563468   0.799298   0.535147   x
            x  H                12         0.413090   0.875376   0.513444   x
            x  H                13         0.313077   0.971741   0.250358   x
            x  H                14         0.200781   0.859590   0.242329   x
            x  H                15         0.387169   0.670959   0.248075   x
            x  H                16        -0.060381   0.046175   0.003033   x
            x  H                17        -0.063468   0.700702   0.035147   x
            x  H                18         0.086910   0.624624   0.013444   x
            x  H                19         0.686923   0.971741   0.249642   x
            x  H                20         0.799219   0.859590   0.257671   x
            x  H                21         0.612831   0.670959   0.251925   x
            x  H                22         1.060381   0.046175   0.496967   x
            x  H                23         1.063468   0.700702   0.464853   x
            x  H                24         0.913090   0.624624   0.486556   x
            x  H                25         0.813077   0.528259   0.749642   x
            x  H                26         0.700781   0.640410   0.757671   x
            x  H                27         0.887169   0.829041   0.751925   x
            x  H                28         0.439619   0.453825  -0.003033   x
            x  H                29         0.436532   0.799298   0.964853   x
            x  H                30         0.586910   0.875376   0.986556   x
            x  H                31         0.813077   0.471741   0.249642   x
            x  H                32         0.700781   0.359590   0.257671   x
            x  H                33         0.887169   0.170959   0.251925   x
            x  H                34         0.439619   0.546175   0.496967   x
            x  H                35         0.436532   0.200702   0.464853   x
            x  H                36         0.586910   0.124624   0.486556   x
            x  H                37         0.686923   0.028259   0.749642   x
            x  H                38         0.799219   0.140410   0.757671   x
            x  H                39         0.612831   0.329041   0.751925   x
            x  H                40         0.060381  -0.046175  -0.003033   x
            x  H                41         1.063468   0.299298   0.964853   x
            x  H                42         0.913090   0.375376   0.986556   x
            x  H                43         0.313077   0.028259   0.750358   x
            x  H                44         0.200781   0.140410   0.742329   x
            x  H                45         0.387169   0.329041   0.748075   x
            x  H                46         0.939619  -0.046175   0.503033   x
            x  H                47        -0.063468   0.299298   0.535147   x
            x  H                48         0.086910   0.375376   0.513444   x
            xxxxxxxxxxxxxxxxxxxxxxxxxxxxxxxxxxxxxxxxxxxxxxxxxxxxxxxxxxxxxxxxx


------------------------------------------------------------------------ <-- SCF
SCF loop      Energy                           Energy gain       Timer   <-- SCF
                                               per atom          (sec)   <-- SCF
------------------------------------------------------------------------ <-- SCF
Initial  -7.11198443E+002                                        606.01  <-- SCF
      1  -7.22225981E+002                    2.29740370E-001     623.88  <-- SCF
      2  -7.22292257E+002                    1.38075642E-003     646.47  <-- SCF
      3  -7.21201036E+002                   -2.27337818E-002     669.02  <-- SCF
      4  -7.21157960E+002                   -8.97411385E-004     691.64  <-- SCF
      5  -7.21158253E+002                    6.10672468E-006     714.14  <-- SCF
      6  -7.21158275E+002                    4.58757371E-007     736.68  <-- SCF
      7  -7.21158275E+002                    8.05651892E-009     759.26  <-- SCF
      8  -7.21158275E+002                    2.63072825E-010     781.45  <-- SCF
      9  -7.21158275E+002                    1.78122330E-011     797.65  <-- SCF
     10  -7.21158275E+002                    5.27680354E-013     813.71  <-- SCF
     11  -7.21158275E+002                   -2.49741847E-013     829.77  <-- SCF
------------------------------------------------------------------------ <-- SCF
 
Final energy =  -721.1582753174     eV
(energy not corrected for finite basis set)
 

 ******************************** Symmetrised Forces ********************************
 *                                                                                  *
 *                           Cartesian components (eV/A)                            *
 * -------------------------------------------------------------------------------- *
 *                         x                    y                    z              *
 *                                                                                  *
 * H               1     -2.31787             -2.01737             -0.49245         *
 * H               2      2.36625              2.08907              0.72936         *
 * H               3      2.04868              2.73045              0.18799         *
 * H               4      0.89874             -0.08395             -0.02405         *
 * H               5      0.54921             -0.76548             -0.04864         *
 * H               6     -0.36592              0.83792              0.07613         *
 * H               7     -0.36592             -0.83792              0.07613         *
 * H               8      0.54921              0.76548             -0.04864         *
 * H               9      0.89874              0.08395             -0.02405         *
 * H              10      2.04868             -2.73045              0.18799         *
 * H              11      2.36625             -2.08907              0.72936         *
 * H              12     -2.31787              2.01737             -0.49245         *
 * H              13      0.36592              0.83792              0.07613         *
 * H              14     -0.54921             -0.76548             -0.04864         *
 * H              15     -0.89874             -0.08395             -0.02405         *
 * H              16     -2.04868              2.73045              0.18799         *
 * H              17     -2.36625              2.08907              0.72936         *
 * H              18      2.31787             -2.01737             -0.49245         *
 * H              19     -0.36592              0.83792             -0.07613         *
 * H              20      0.54921             -0.76548              0.04864         *
 * H              21      0.89874             -0.08395              0.02405         *
 * H              22      2.04868              2.73045             -0.18799         *
 * H              23      2.36625              2.08907             -0.72936         *
 * H              24     -2.31787             -2.01737              0.49245         *
 * H              25      0.36592             -0.83792             -0.07613         *
 * H              26     -0.54921              0.76548              0.04864         *
 * H              27     -0.89874              0.08395              0.02405         *
 * H              28     -2.04868             -2.73045             -0.18799         *
 * H              29     -2.36625             -2.08907             -0.72936         *
 * H              30      2.31787              2.01737              0.49245         *
 * H              31      0.36592              0.83792             -0.07613         *
 * H              32     -0.54921             -0.76548              0.04864         *
 * H              33     -0.89874             -0.08395              0.02405         *
 * H              34     -2.04868              2.73045             -0.18799         *
 * H              35     -2.36625              2.08907             -0.72936         *
 * H              36      2.31787             -2.01737              0.49245         *
 * H              37     -0.36592             -0.83792             -0.07613         *
 * H              38      0.54921              0.76548              0.04864         *
 * H              39      0.89874              0.08395              0.02405         *
 * H              40      2.04868             -2.73045             -0.18799         *
 * H              41      2.36625             -2.08907             -0.72936         *
 * H              42     -2.31787              2.01737              0.49245         *
 * H              43      0.36592             -0.83792              0.07613         *
 * H              44     -0.54921              0.76548             -0.04864         *
 * H              45     -0.89874              0.08395             -0.02405         *
 * H              46     -2.04868             -2.73045              0.18799         *
 * H              47     -2.36625             -2.08907              0.72936         *
 * H              48      2.31787              2.01737             -0.49245         *
 *                                                                                  *
 ************************************************************************************

 *********** Symmetrised Stress Tensor ***********
 *                                               *
 *          Cartesian components (GPa)           *
 * --------------------------------------------- *
 *             x             y             z     *
 *                                               *
 *  x   -135.580500      0.000000      0.000000  *
 *  y      0.000000   -135.650862      0.000000  *
 *  z      0.000000      0.000000   -105.234883  *
 *                                               *
 *  Pressure:  125.4887                          *
 *                                               *
 *************************************************
  
 +------------+-------------+-------------+-----------------+ <-- min LBFGS
 |    Step    |   lambda    |   F.delta'  |    enthalpy     | <-- min LBFGS
 +------------+-------------+-------------+-----------------+ <-- min LBFGS
 |  previous  |    0.000000 |    0.416800 |     -643.660763 | <-- min LBFGS
 | trial step |    1.000000 |   -1.936549 |     -642.164816 | <-- min LBFGS
 +------------+-------------+-------------+-----------------+ <-- min LBFGS
  

--------------------------------------------------------------------------------
 LBFGS: improving iteration         2 with line minimization (lambda=  0.177109)
--------------------------------------------------------------------------------

                           -------------------------------
                                      Unit Cell
                           -------------------------------
        Real Lattice(A)              Reciprocal Lattice(1/A)
     3.1901149    -0.0000000     0.0000000        1.969579624   0.000000000   0.000000000
    -0.0000000     5.5432421     0.0000000        0.000000000   1.133485639   0.000000000
     0.0000000     0.0000000     5.6502308        0.000000000   0.000000000   1.112022767

                       Lattice parameters(A)       Cell Angles
                    a =      3.190115          alpha =   90.000000
                    b =      5.543242          beta  =   90.000000
                    c =      5.650231          gamma =   90.000000

                Current cell volume =            99.916304 A**3

                           -------------------------------
                                     Cell Contents
                           -------------------------------

            xxxxxxxxxxxxxxxxxxxxxxxxxxxxxxxxxxxxxxxxxxxxxxxxxxxxxxxxxxxxxxxxx
            x  Element         Atom        Fractional coordinates of atoms  x
            x                 Number           u          v          w      x
            x---------------------------------------------------------------x
            x  H                 1         0.403931   0.119934   0.012086   x
            x  H                 2         0.572766   0.205385   0.036507   x
            x  H                 3         0.568099   0.552099   0.003434   x
            x  H                 4         0.122933   0.170781   0.247867   x
            x  H                 5         0.304572   0.354642   0.241869   x
            x  H                 6         0.182197   0.476908   0.250750   x
            x  H                 7         0.182197   0.523092   0.750750   x
            x  H                 8         0.304572   0.645358   0.741869   x
            x  H                 9         0.122933   0.829219   0.747867   x
            x  H                10         0.568099   0.447901   0.503434   x
            x  H                11         0.572766   0.794615   0.536507   x
            x  H                12         0.403931   0.880066   0.512086   x
            x  H                13         0.317803   0.976908   0.250750   x
            x  H                14         0.195428   0.854642   0.241869   x
            x  H                15         0.377067   0.670781   0.247867   x
            x  H                16        -0.068099   0.052099   0.003434   x
            x  H                17        -0.072766   0.705385   0.036507   x
            x  H                18         0.096069   0.619934   0.012086   x
            x  H                19         0.682197   0.976908   0.249250   x
            x  H                20         0.804572   0.854642   0.258131   x
            x  H                21         0.622933   0.670781   0.252133   x
            x  H                22         1.068099   0.052099   0.496566   x
            x  H                23         1.072766   0.705385   0.463493   x
            x  H                24         0.903931   0.619934   0.487914   x
            x  H                25         0.817803   0.523092   0.749250   x
            x  H                26         0.695428   0.645358   0.758131   x
            x  H                27         0.877067   0.829219   0.752133   x
            x  H                28         0.431901   0.447901  -0.003434   x
            x  H                29         0.427234   0.794615   0.963493   x
            x  H                30         0.596069   0.880066   0.987914   x
            x  H                31         0.817803   0.476908   0.249250   x
            x  H                32         0.695428   0.354642   0.258131   x
            x  H                33         0.877067   0.170781   0.252133   x
            x  H                34         0.431901   0.552099   0.496566   x
            x  H                35         0.427234   0.205385   0.463493   x
            x  H                36         0.596069   0.119934   0.487914   x
            x  H                37         0.682197   0.023092   0.749250   x
            x  H                38         0.804572   0.145358   0.758131   x
            x  H                39         0.622933   0.329219   0.752133   x
            x  H                40         0.068099  -0.052099  -0.003434   x
            x  H                41         1.072766   0.294615   0.963493   x
            x  H                42         0.903931   0.380066   0.987914   x
            x  H                43         0.317803   0.023092   0.750750   x
            x  H                44         0.195428   0.145358   0.741869   x
            x  H                45         0.377067   0.329219   0.747867   x
            x  H                46         0.931901  -0.052099   0.503434   x
            x  H                47        -0.072766   0.294615   0.536507   x
            x  H                48         0.096069   0.380066   0.512086   x
            xxxxxxxxxxxxxxxxxxxxxxxxxxxxxxxxxxxxxxxxxxxxxxxxxxxxxxxxxxxxxxxxx


------------------------------------------------------------------------ <-- SCF
SCF loop      Energy                           Energy gain       Timer   <-- SCF
                                               per atom          (sec)   <-- SCF
------------------------------------------------------------------------ <-- SCF
Initial  -7.11296081E+002                                        852.98  <-- SCF
      1  -7.19375617E+002                    1.68323660E-001     870.18  <-- SCF
      2  -7.19422379E+002                    9.74201324E-004     892.45  <-- SCF
      3  -7.18634119E+002                   -1.64220823E-002     914.20  <-- SCF
      4  -7.18608166E+002                   -5.40672830E-004     936.41  <-- SCF
      5  -7.18608230E+002                    1.33136945E-006     958.06  <-- SCF
      6  -7.18608234E+002                    8.21536722E-008     979.95  <-- SCF
      7  -7.18608234E+002                    6.16056743E-011    1001.56  <-- SCF
      8  -7.18608234E+002                    1.48322489E-010    1018.45  <-- SCF
      9  -7.18608234E+002                    5.08345501E-012    1034.05  <-- SCF
     10  -7.18608234E+002                    3.30303733E-013    1049.59  <-- SCF
------------------------------------------------------------------------ <-- SCF
 
Final energy =  -718.6082342215     eV
(energy not corrected for finite basis set)
 

 ******************************** Symmetrised Forces ********************************
 *                                                                                  *
 *                           Cartesian components (eV/A)                            *
 * -------------------------------------------------------------------------------- *
 *                         x                    y                    z              *
 *                                                                                  *
 * H               1     -0.05107             -0.03828              0.00802         *
 * H               2      0.05644              0.05260              0.03921         *
 * H               3      0.05128              0.06954              0.00525         *
 * H               4     -0.17050             -0.00815              0.00764         *
 * H               5     -0.07450              0.14743              0.01689         *
 * H               6      0.09394             -0.14331             -0.00788         *
 * H               7      0.09394              0.14331             -0.00788         *
 * H               8     -0.07450             -0.14743              0.01689         *
 * H               9     -0.17050              0.00815              0.00764         *
 * H              10      0.05128             -0.06954              0.00525         *
 * H              11      0.05644             -0.05260              0.03921         *
 * H              12     -0.05107              0.03828              0.00802         *
 * H              13     -0.09394             -0.14331             -0.00788         *
 * H              14      0.07450              0.14743              0.01689         *
 * H              15      0.17050             -0.00815              0.00764         *
 * H              16     -0.05128              0.06954              0.00525         *
 * H              17     -0.05644              0.05260              0.03921         *
 * H              18      0.05107             -0.03828              0.00802         *
 * H              19      0.09394             -0.14331              0.00788         *
 * H              20     -0.07450              0.14743             -0.01689         *
 * H              21     -0.17050             -0.00815             -0.00764         *
 * H              22      0.05128              0.06954             -0.00525         *
 * H              23      0.05644              0.05260             -0.03921         *
 * H              24     -0.05107             -0.03828             -0.00802         *
 * H              25     -0.09394              0.14331              0.00788         *
 * H              26      0.07450             -0.14743             -0.01689         *
 * H              27      0.17050              0.00815             -0.00764         *
 * H              28     -0.05128             -0.06954             -0.00525         *
 * H              29     -0.05644             -0.05260             -0.03921         *
 * H              30      0.05107              0.03828             -0.00802         *
 * H              31     -0.09394             -0.14331              0.00788         *
 * H              32      0.07450              0.14743             -0.01689         *
 * H              33      0.17050             -0.00815             -0.00764         *
 * H              34     -0.05128              0.06954             -0.00525         *
 * H              35     -0.05644              0.05260             -0.03921         *
 * H              36      0.05107             -0.03828             -0.00802         *
 * H              37      0.09394              0.14331              0.00788         *
 * H              38     -0.07450             -0.14743             -0.01689         *
 * H              39     -0.17050              0.00815             -0.00764         *
 * H              40      0.05128             -0.06954             -0.00525         *
 * H              41      0.05644             -0.05260             -0.03921         *
 * H              42     -0.05107              0.03828             -0.00802         *
 * H              43     -0.09394              0.14331             -0.00788         *
 * H              44      0.07450             -0.14743              0.01689         *
 * H              45      0.17050              0.00815              0.00764         *
 * H              46     -0.05128             -0.06954              0.00525         *
 * H              47     -0.05644             -0.05260              0.03921         *
 * H              48      0.05107              0.03828              0.00802         *
 *                                                                                  *
 ************************************************************************************

 *********** Symmetrised Stress Tensor ***********
 *                                               *
 *          Cartesian components (GPa)           *
 * --------------------------------------------- *
 *             x             y             z     *
 *                                               *
 *  x   -124.379332      0.000000      0.000000  *
 *  y      0.000000   -124.315832      0.000000  *
 *  z      0.000000      0.000000   -124.898639  *
 *                                               *
 *  Pressure:  124.5313                          *
 *                                               *
 *************************************************
  
 +------------+-------------+-------------+-----------------+ <-- min LBFGS
 |    Step    |   lambda    |   F.delta'  |    enthalpy     | <-- min LBFGS
 +------------+-------------+-------------+-----------------+ <-- min LBFGS
 |  previous  |    0.000000 |    0.416800 |     -643.660763 | <-- min LBFGS
 | trial step |    1.000000 |   -1.936549 |     -642.164816 | <-- min LBFGS
 |  line step |    0.177109 |    0.107978 |     -643.772811 | <-- min LBFGS
 +------------+-------------+-------------+-----------------+ <-- min LBFGS
  
 LBFGS: finished iteration     2 with enthalpy= -6.43772811E+002 eV
  
 +-----------+-----------------+-----------------+------------+-----+ <-- LBFGS
 | Parameter |      value      |    tolerance    |    units   | OK? | <-- LBFGS
 +-----------+-----------------+-----------------+------------+-----+ <-- LBFGS
 |  dE/ion   |   2.334346E-003 |   1.000000E-009 |         eV | No  | <-- LBFGS
 |  |F|max   |   1.715355E-001 |   1.000000E-005 |       eV/A | No  | <-- LBFGS
 |  |dR|max  |   8.847387E-003 |   1.000000E-005 |          A | No  | <-- LBFGS
 |   Smax    |   4.898639E+000 |   1.000000E-005 |        GPa | No  | <-- LBFGS
 +-----------+-----------------+-----------------+------------+-----+ <-- LBFGS
  

================================================================================
 Starting LBFGS iteration          3 ...
================================================================================
  
 +------------+-------------+-------------+-----------------+ <-- min LBFGS
 |    Step    |   lambda    |   F.delta'  |    enthalpy     | <-- min LBFGS
 +------------+-------------+-------------+-----------------+ <-- min LBFGS
 |  previous  |    0.000000 |    0.186613 |     -643.772811 | <-- min LBFGS
 +------------+-------------+-------------+-----------------+ <-- min LBFGS
  

--------------------------------------------------------------------------------
 LBFGS: starting iteration         3 with trial guess (lambda=  1.000000)
--------------------------------------------------------------------------------

                           -------------------------------
                                      Unit Cell
                           -------------------------------
        Real Lattice(A)              Reciprocal Lattice(1/A)
     3.2153808    -0.0000000     0.0000000        1.954102984   0.000000000   0.000000000
    -0.0000000     5.5868109     0.0000000        0.000000000   1.124646136   0.000000000
     0.0000000     0.0000000     5.7007463        0.000000000   0.000000000   1.102168897

                       Lattice parameters(A)       Cell Angles
                    a =      3.215381          alpha =   90.000000
                    b =      5.586811          beta  =   90.000000
                    c =      5.700746          gamma =   90.000000

                Current cell volume =           102.406638 A**3

                           -------------------------------
                                     Cell Contents
                           -------------------------------

            xxxxxxxxxxxxxxxxxxxxxxxxxxxxxxxxxxxxxxxxxxxxxxxxxxxxxxxxxxxxxxxxx
            x  Element         Atom        Fractional coordinates of atoms  x
            x                 Number           u          v          w      x
            x---------------------------------------------------------------x
            x  H                 1         0.402894   0.119580   0.012453   x
            x  H                 2         0.574016   0.206094   0.037289   x
            x  H                 3         0.569328   0.553071   0.003511   x
            x  H                 4         0.114323   0.170602   0.248080   x
            x  H                 5         0.300690   0.358917   0.242338   x
            x  H                 6         0.186835   0.472707   0.250509   x
            x  H                 7         0.186835   0.527293   0.750509   x
            x  H                 8         0.300690   0.641083   0.742338   x
            x  H                 9         0.114323   0.829398   0.748080   x
            x  H                10         0.569328   0.446929   0.503511   x
            x  H                11         0.574016   0.793906   0.537289   x
            x  H                12         0.402894   0.880420   0.512453   x
            x  H                13         0.313165   0.972707   0.250509   x
            x  H                14         0.199310   0.858917   0.242338   x
            x  H                15         0.385677   0.670602   0.248080   x
            x  H                16        -0.069328   0.053071   0.003511   x
            x  H                17        -0.074016   0.706094   0.037289   x
            x  H                18         0.097106   0.619580   0.012453   x
            x  H                19         0.686835   0.972707   0.249491   x
            x  H                20         0.800690   0.858917   0.257662   x
            x  H                21         0.614323   0.670602   0.251920   x
            x  H                22         1.069328   0.053071   0.496489   x
            x  H                23         1.074016   0.706094   0.462711   x
            x  H                24         0.902894   0.619580   0.487547   x
            x  H                25         0.813165   0.527293   0.749491   x
            x  H                26         0.699310   0.641083   0.757662   x
            x  H                27         0.885677   0.829398   0.751920   x
            x  H                28         0.430672   0.446929  -0.003511   x
            x  H                29         0.425984   0.793906   0.962711   x
            x  H                30         0.597106   0.880420   0.987547   x
            x  H                31         0.813165   0.472707   0.249491   x
            x  H                32         0.699310   0.358917   0.257662   x
            x  H                33         0.885677   0.170602   0.251920   x
            x  H                34         0.430672   0.553071   0.496489   x
            x  H                35         0.425984   0.206094   0.462711   x
            x  H                36         0.597106   0.119580   0.487547   x
            x  H                37         0.686835   0.027293   0.749491   x
            x  H                38         0.800690   0.141083   0.757662   x
            x  H                39         0.614323   0.329398   0.751920   x
            x  H                40         0.069328  -0.053071  -0.003511   x
            x  H                41         1.074016   0.293906   0.962711   x
            x  H                42         0.902894   0.380420   0.987547   x
            x  H                43         0.313165   0.027293   0.750509   x
            x  H                44         0.199310   0.141083   0.742338   x
            x  H                45         0.385677   0.329398   0.748080   x
            x  H                46         0.930672  -0.053071   0.503511   x
            x  H                47        -0.074016   0.293906   0.537289   x
            x  H                48         0.097106   0.380420   0.512453   x
            xxxxxxxxxxxxxxxxxxxxxxxxxxxxxxxxxxxxxxxxxxxxxxxxxxxxxxxxxxxxxxxxx


------------------------------------------------------------------------ <-- SCF
SCF loop      Energy                           Energy gain       Timer   <-- SCF
                                               per atom          (sec)   <-- SCF
------------------------------------------------------------------------ <-- SCF
Initial  -7.18301943E+002                                       1071.72  <-- SCF
      1  -7.20605475E+002                    4.79902374E-002    1089.05  <-- SCF
      2  -7.20624251E+002                    3.91171495E-004    1110.79  <-- SCF
      3  -7.20289295E+002                   -6.97824324E-003    1132.54  <-- SCF
      4  -7.20281156E+002                   -1.69564097E-004    1154.69  <-- SCF
      5  -7.20281155E+002                   -3.25456083E-008    1176.47  <-- SCF
      6  -7.20281155E+002                    1.90247720E-008    1198.42  <-- SCF
      7  -7.20281155E+002                    1.22706226E-009    1220.28  <-- SCF
      8  -7.20281156E+002                    2.25837121E-010    1238.32  <-- SCF
      9  -7.20281156E+002                    8.16696121E-012    1253.83  <-- SCF
     10  -7.20281156E+002                    2.25573281E-013    1269.38  <-- SCF
[...]
              H 21 -- H 42                  -0.01        2.39957
              H 30 -- H 33                  -0.01        2.39957
              H 11 -- H 29                   0.00        2.41119
              H 41 -- H 47                   0.00        2.41119
              H 2  -- H 35                   0.00        2.41119
              H 17 -- H 23                   0.00        2.41119
              H 26 -- H 47                  -0.03        2.42212
              H 8  -- H 41                  -0.03        2.42212
              H 11 -- H 38                  -0.03        2.42212
              H 29 -- H 44                  -0.03        2.42212
              H 2  -- H 20                  -0.03        2.42212
              H 14 -- H 35                  -0.03        2.42212
              H 17 -- H 32                  -0.03        2.42212
              H 5  -- H 23                  -0.03        2.42212
              H 14 -- H 31                   0.00        2.45824
              H 25 -- H 44                   0.00        2.45824
              H 6  -- H 20                   0.00        2.45824
              H 5  -- H 19                   0.00        2.45824
              H 8  -- H 37                   0.00        2.45824
              H 13 -- H 32                   0.00        2.45824
              H 7  -- H 38                   0.00        2.45824
              H 26 -- H 43                   0.00        2.45824
              H 28 -- H 30                  -0.07        2.46701
              H 10 -- H 12                  -0.07        2.46701
              H 22 -- H 24                  -0.07        2.46701
              H 16 -- H 18                  -0.07        2.46701
              H 34 -- H 36                  -0.07        2.46701
              H 1  -- H 3                   -0.07        2.46701
              H 46 -- H 48                  -0.07        2.46701
              H 40 -- H 42                  -0.07        2.46701
              H 3  -- H 14                  -0.02        2.47715
              H 22 -- H 32                  -0.02        2.47715
              H 20 -- H 34                  -0.02        2.47715
              H 8  -- H 46                  -0.02        2.47715
              H 5  -- H 16                  -0.02        2.47715
              H 26 -- H 40                  -0.02        2.47715
              H 10 -- H 44                  -0.02        2.47715
              H 28 -- H 38                  -0.02        2.47715
              H 7  -- H 12                  -0.03        2.49677
              H 25 -- H 30                  -0.03        2.49677
              H 19 -- H 24                  -0.03        2.49677
              H 43 -- H 48                  -0.03        2.49677
              H 13 -- H 18                  -0.03        2.49677
              H 37 -- H 42                  -0.03        2.49677
              H 31 -- H 36                  -0.03        2.49677
              H 1  -- H 6                   -0.03        2.49677
              H 26 -- H 41                  -0.03        2.55665
              H 20 -- H 35                  -0.03        2.55665
              H 8  -- H 47                  -0.03        2.55665
              H 2  -- H 14                  -0.03        2.55665
              H 23 -- H 32                  -0.03        2.55665
              H 5  -- H 17                  -0.03        2.55665
              H 29 -- H 38                  -0.03        2.55665
              H 11 -- H 44                  -0.03        2.55665
              H 23 -- H 43                  -0.01        2.55877
              H 17 -- H 37                  -0.01        2.55877
              H 11 -- H 31                  -0.01        2.55877
              H 7  -- H 35                  -0.01        2.55877
              H 19 -- H 47                  -0.01        2.55877
              H 2  -- H 25                  -0.01        2.55877
              H 6  -- H 29                  -0.01        2.55877
              H 13 -- H 41                  -0.01        2.55877
              H 11 -- H 30                   0.01        2.56256
              H 12 -- H 29                   0.01        2.56256
              H 42 -- H 47                   0.01        2.56256
              H 41 -- H 48                   0.01        2.56256
              H 18 -- H 23                   0.01        2.56256
              H 2  -- H 36                   0.01        2.56256
              H 1  -- H 35                   0.01        2.56256
              H 17 -- H 24                   0.01        2.56256
              H 15 -- H 46                  -0.01        2.56650
              H 3  -- H 9                   -0.01        2.56650
              H 21 -- H 40                  -0.01        2.56650
              H 27 -- H 34                  -0.01        2.56650
              H 4  -- H 10                  -0.01        2.56650
              H 22 -- H 39                  -0.01        2.56650
              H 16 -- H 45                  -0.01        2.56650
              H 28 -- H 33                  -0.01        2.56650
              H 24 -- H 45                  -0.01        2.68036
              H 18 -- H 39                  -0.01        2.68036
              H 15 -- H 42                  -0.01        2.68036
              H 9  -- H 36                  -0.01        2.68036
              H 4  -- H 30                  -0.01        2.68036
              H 21 -- H 48                  -0.01        2.68036
              H 1  -- H 27                  -0.01        2.68036
              H 12 -- H 33                  -0.01        2.68036
              H 6  -- H 11                  -0.00        2.72571
              H 13 -- H 47                  -0.00        2.72571
              H 17 -- H 43                  -0.00        2.72571
              H 29 -- H 31                  -0.00        2.72571
              H 23 -- H 37                  -0.00        2.72571
              H 2  -- H 7                   -0.00        2.72571
              H 19 -- H 41                  -0.00        2.72571
              H 25 -- H 35                  -0.00        2.72571
              H 13 -- H 24                  -0.01        2.72701
              H 7  -- H 30                  -0.01        2.72701
              H 6  -- H 36                  -0.01        2.72701
              H 42 -- H 43                  -0.01        2.72701
              H 18 -- H 19                  -0.01        2.72701
              H 12 -- H 25                  -0.01        2.72701
              H 37 -- H 48                  -0.01        2.72701
              H 1  -- H 31                  -0.01        2.72701
              H 34 -- H 46                   0.01        2.73765
              H 3  -- H 40                   0.01        2.73765
              H 10 -- H 22                   0.01        2.73765
              H 16 -- H 28                   0.01        2.73765
              H 42 -- H 48                   0.01        2.74051
              H 12 -- H 30                   0.01        2.74051
              H 18 -- H 24                   0.01        2.74051
              H 1  -- H 36                   0.01        2.74051
              H 9  -- H 28                   0.02        2.74852
              H 16 -- H 21                   0.02        2.74852
              H 10 -- H 27                   0.02        2.74852
              H 15 -- H 22                   0.02        2.74852
              H 4  -- H 34                   0.02        2.74852
              H 40 -- H 45                   0.02        2.74852
              H 3  -- H 33                   0.02        2.74852
              H 39 -- H 46                   0.02        2.74852
              H 13 -- H 34                   0.01        2.76909
              H 6  -- H 22                   0.01        2.76909
              H 16 -- H 31                   0.01        2.76909
              H 7  -- H 40                   0.01        2.76909
              H 25 -- H 46                   0.01        2.76909
              H 3  -- H 19                   0.01        2.76909
              H 28 -- H 43                   0.01        2.76909
              H 10 -- H 37                   0.01        2.76909
              H 14 -- H 28                   0.00        2.77418
              H 10 -- H 20                   0.00        2.77418
              H 5  -- H 40                   0.00        2.77418
              H 32 -- H 46                   0.00        2.77418
              H 34 -- H 44                   0.00        2.77418
              H 16 -- H 26                   0.00        2.77418
              H 3  -- H 38                   0.00        2.77418
              H 8  -- H 22                   0.00        2.77418
              H 11 -- H 48                   0.01        2.78843
              H 1  -- H 17                   0.01        2.78843
              H 29 -- H 42                   0.01        2.78843
              H 23 -- H 36                   0.01        2.78843
              H 12 -- H 47                   0.01        2.78843
              H 2  -- H 18                   0.01        2.78843
              H 30 -- H 41                   0.01        2.78843
              H 24 -- H 35                   0.01        2.78843
              H 6  -- H 12                   0.00        2.79247
              H 18 -- H 43                   0.00        2.79247
              H 24 -- H 37                   0.00        2.79247
              H 1  -- H 7                    0.00        2.79247
              H 13 -- H 48                   0.00        2.79247
              H 30 -- H 31                   0.00        2.79247
              H 25 -- H 36                   0.00        2.79247
              H 19 -- H 42                   0.00        2.79247
              H 32 -- H 39                   0.01        2.80792
              H 5  -- H 45                   0.01        2.80792
              H 20 -- H 27                   0.01        2.80792
              H 9  -- H 14                   0.01        2.80792
              H 4  -- H 44                   0.01        2.80792
              H 33 -- H 38                   0.01        2.80792
              H 8  -- H 15                   0.01        2.80792
              H 21 -- H 26                   0.01        2.80792
              H 20 -- H 32                  -0.03        2.81578
              H 5  -- H 14                  -0.03        2.81578
              H 26 -- H 38                  -0.03        2.81578
              H 8  -- H 44                  -0.03        2.81578
              H 6  -- H 13                  -0.03        2.82625
              H 7  -- H 43                  -0.03        2.82625
              H 19 -- H 31                  -0.03        2.82625
              H 25 -- H 37                  -0.03        2.82625
              H 3  -- H 34                   0.03        2.82653
              H 40 -- H 46                   0.03        2.82653
              H 16 -- H 22                   0.03        2.82653
              H 10 -- H 28                   0.03        2.82653
              H 23 -- H 45                   0.02        2.83565
              H 17 -- H 39                   0.02        2.83565
              H 4  -- H 29                   0.02        2.83565
              H 11 -- H 33                   0.02        2.83565
              H 15 -- H 41                   0.02        2.83565
              H 9  -- H 35                   0.02        2.83565
              H 2  -- H 27                   0.02        2.83565
              H 21 -- H 47                   0.02        2.83565
              H 13 -- H 43                   0.01        2.84265
              H 6  -- H 7                    0.01        2.84265
              H 25 -- H 31                   0.01        2.84265
              H 19 -- H 37                   0.01        2.84265
              H 27 -- H 42                   0.03        2.84508
              H 9  -- H 48                   0.03        2.84508
              H 1  -- H 15                   0.03        2.84508
              H 21 -- H 36                   0.03        2.84508
              H 4  -- H 18                   0.03        2.84508
              H 24 -- H 33                   0.03        2.84508
              H 12 -- H 45                   0.03        2.84508
              H 30 -- H 39                   0.03        2.84508
              H 11 -- H 39                   0.03        2.86679
              H 29 -- H 45                   0.03        2.86679
              H 17 -- H 33                   0.03        2.86679
              H 4  -- H 23                   0.03        2.86679
              H 27 -- H 47                   0.03        2.86679
              H 9  -- H 41                   0.03        2.86679
              H 2  -- H 21                   0.03        2.86679
              H 15 -- H 35                   0.03        2.86679
              H 22 -- H 31                   0.02        2.87023
              H 7  -- H 46                   0.02        2.87023
              H 25 -- H 40                   0.02        2.87023
              H 19 -- H 34                   0.02        2.87023
              H 10 -- H 43                   0.02        2.87023
              H 28 -- H 37                   0.02        2.87023
              H 3  -- H 13                   0.02        2.87023
              H 6  -- H 16                   0.02        2.87023
              H 28 -- H 34                   0.03        2.88807
              H 3  -- H 10                   0.03        2.88807
              H 22 -- H 40                   0.03        2.88807
              H 16 -- H 46                   0.03        2.88807
              H 29 -- H 39                   0.03        2.91702
              H 11 -- H 45                   0.03        2.91702
              H 4  -- H 17                   0.03        2.91702
              H 23 -- H 33                   0.03        2.91702
              H 9  -- H 47                   0.03        2.91702
              H 27 -- H 41                   0.03        2.91702
              H 21 -- H 35                   0.03        2.91702
              H 2  -- H 15                   0.03        2.91702
              H 9  -- H 45                   0.01        2.91800
              H 27 -- H 39                   0.01        2.91800
              H 4  -- H 15                   0.01        2.91800
              H 21 -- H 33                   0.01        2.91800
              H 9  -- H 10                   0.02        2.92242
              H 27 -- H 28                   0.02        2.92242
              H 21 -- H 22                   0.02        2.92242
              H 15 -- H 16                   0.02        2.92242
              H 3  -- H 4                    0.02        2.92242
              H 45 -- H 46                   0.02        2.92242
              H 33 -- H 34                   0.02        2.92242
              H 39 -- H 40                   0.02        2.92242
              H 9  -- H 42                   0.03        2.94040
              H 27 -- H 48                   0.03        2.94040
              H 15 -- H 36                   0.03        2.94040
              H 1  -- H 21                   0.03        2.94040
              H 4  -- H 24                   0.03        2.94040
              H 18 -- H 33                   0.03        2.94040
              H 30 -- H 45                   0.03        2.94040
              H 12 -- H 39                   0.03        2.94040
              H 29 -- H 34                  -0.00        2.94801
              H 17 -- H 46                  -0.00        2.94801
              H 23 -- H 40                  -0.00        2.94801
              H 3  -- H 11                  -0.00        2.94801
              H 22 -- H 41                  -0.00        2.94801
              H 16 -- H 47                  -0.00        2.94801
              H 2  -- H 10                  -0.00        2.94801
              H 28 -- H 35                  -0.00        2.94801
              H 13 -- H 44                   0.01        2.94921
              H 6  -- H 8                    0.01        2.94921
              H 5  -- H 7                    0.01        2.94921
              H 25 -- H 32                   0.01        2.94921
              H 20 -- H 37                   0.01        2.94921
              H 14 -- H 43                   0.01        2.94921
              H 26 -- H 31                   0.01        2.94921
              H 19 -- H 38                   0.01        2.94921
              H 5  -- H 39                   0.01        2.94928
              H 14 -- H 27                   0.01        2.94928
              H 9  -- H 20                   0.01        2.94928
              H 32 -- H 45                   0.01        2.94928
              H 33 -- H 44                   0.01        2.94928
              H 8  -- H 21                   0.01        2.94928
              H 4  -- H 38                   0.01        2.94928
              H 15 -- H 26                   0.01        2.94928
              H 11 -- H 32                   0.01        2.95223
              H 5  -- H 29                   0.01        2.95223
              H 23 -- H 44                   0.01        2.95223
              H 17 -- H 38                   0.01        2.95223
              H 8  -- H 35                   0.01        2.95223
              H 2  -- H 26                   0.01        2.95223
              H 20 -- H 47                   0.01        2.95223
              H 14 -- H 41                   0.01        2.95223
              H 12 -- H 40                   0.01        2.96307
              H 28 -- H 48                   0.01        2.96307
              H 18 -- H 34                   0.01        2.96307
              H 10 -- H 42                   0.01        2.96307
              H 30 -- H 46                   0.01        2.96307
              H 1  -- H 22                   0.01        2.96307
              H 16 -- H 36                   0.01        2.96307
              H 3  -- H 24                   0.01        2.96307
              H 12 -- H 48                   0.02        2.96518
              H 1  -- H 18                   0.02        2.96518
              H 30 -- H 42                   0.02        2.96518
              H 24 -- H 36                   0.02        2.96518
              H 10 -- H 14                   0.01        2.97257
              H 20 -- H 28                   0.01        2.97257
              H 22 -- H 26                   0.01        2.97257
              H 3  -- H 44                   0.01        2.97257
              H 34 -- H 38                   0.01        2.97257
              H 5  -- H 46                   0.01        2.97257
              H 32 -- H 40                   0.01        2.97257
              H 8  -- H 16                   0.01        2.97257
              H 6  -- H 45                   0.01        2.98819
              H 9  -- H 13                   0.01        2.98819
              H 31 -- H 39                   0.01        2.98819
              H 4  -- H 43                   0.01        2.98819
              H 33 -- H 37                   0.01        2.98819
              H 7  -- H 15                   0.01        2.98819
              H 19 -- H 27                   0.01        2.98819
              H 21 -- H 25                   0.01        2.98819
======================================================================


Writing analysis data to Pbcn.castep_bin

Writing model to Pbcn.check
 
 A BibTeX formatted list of references used in this run has been written to 
 Pbcn.bib
 
Initialisation time =      5.65 s
Calculation time    =   8074.45 s
Finalisation time   =     21.27 s
Total time          =   8101.37 s
Peak Memory Use     = 796572 kB
  
Overall parallel efficiency rating: Excellent (98%)                             
  
Data was distributed by:-
k-point (32-way); efficiency rating: Excellent (98%)                            
