 +-------------------------------------------------+
 |                                                 |
 |      CCC   AA    SSS  TTTTT  EEEEE  PPPP        |
 |     C     A  A  S       T    E      P   P       |
 |     C     AAAA   SS     T    EEE    PPPP        |
 |     C     A  A     S    T    E      P           |
 |      CCC  A  A  SSS     T    EEEEE  P           |
 |                                                 |
 +-------------------------------------------------+
 |                                                 |
 | Welcome to Academic Release CASTEP version 18.1 |          
 | Ab Initio Total Energy Program                  |
 |                                                 |
 | Authors:                                        |
 | M. Segall, M. Probert, C. Pickard, P. Hasnip,   |
 | S. Clark, K. Refson, J. R. Yates, M. Payne      |
 |                                                 |
 | Contributors:                                   |
 | P. Lindan, P. Haynes, J. White, V. Milman,      |
 | N. Govind, M. Gibson, P. Tulip, V. Cocula,      |
 | B. Montanari, D. Quigley, M. Glover,            |
 | L. Bernasconi, A. Perlov, M. Plummer,           |
 | E. McNellis, J. Meyer, J. Gale, D. Jochym       |
 | J. Aarons, B. Walker, R. Gillen, D. Jones       |
 | T. Green, I. J. Bush, C. J. Armstrong,          |
 | E. J. Higgins, E. L. Brown, M. S. McFly,        |
 | J. Wilkins, B-C. Shih, P. J. P. Byrne           |
 |                                                 |
 | Copyright (c) 2000 - 2017                       |
 |                                                 |
 |     Distributed under the terms of an           |
 |     Agreement between the United Kingdom        |
 |     Car-Parrinello (UKCP) Consortium,           |
 |     Daresbury Laboratory and Accelrys, Inc.     |
 |                                                 |
 | Please cite                                     |
 |                                                 |
 |     "First principles methods using CASTEP"     |
 |                                                 |
 |         Zeitschrift fuer Kristallographie       |
 |           220(5-6) pp. 567-570 (2005)           |
 |                                                 |
 | S. J. Clark, M. D. Segall, C. J. Pickard,       |
 | P. J. Hasnip, M. J. Probert, K. Refson,         |
 | M. C. Payne                                     |
 |                                                 |
 |       in all publications arising from          |
 |              your use of CASTEP                 |
 |                                                 |
 +-------------------------------------------------+


 Compiled for linux_x86_64_gfortran4.8 on Thu, 19 Jul 2018 15:42:32 +0100
 from code version 70483bd0ad64+  Sun, 10 Dec 2017 12:18:29 +0000
 Compiler: GNU Fortran 4.8.5; Optimisation: fast
 MATHLIBS: Intel MKL(2018.0.0) (LAPACK version 3.7.0)
 FFT Lib : mkl
 Fundamental constants values: CODATA 2014

 Run started: Fri, 28 Aug 2020 03:38:55 +0100

 Atomic calculation performed for H: 1s1

 Converged in 41 iterations to an ae energy of -12.488 eV

   ============================================================                
   | Pseudopotential Report - Date of generation 28-08-2020   |                
   ------------------------------------------------------------                
   | Element: H Ionic charge:  1.00 Level of theory: PBE      |                
   | Atomic Solver: Koelling-Harmon                           |                
   |                                                          |                
   |               Reference Electronic Structure             |                
   |         Orbital         Occupation         Energy        |                
   |            1s              1.000           -0.239        |                
   |                                                          |                
   |                 Pseudopotential Definition               |                
   |        Beta     l      e      Rc     scheme   norm       |                
   |         loc     0   -0.239   0.702     qc      1         |                
   |                                                          |                
   | No charge augmentation                                   |                
   | No partial core correction                               |                
   ------------------------------------------------------------                
   | "0|0.7|2|6|8|10L(qc=10)"                                 |                
   ------------------------------------------------------------                
   |      Author: Chris J. Pickard, Cambridge University      |                
   ============================================================                

 Pseudo atomic calculation performed for H 1s1

 Converged in 24 iterations to a total energy of -12.4855 eV

 Calculation parallelised over 32 processes.
 Data is distributed by k-point(32-way)

 ************************************ Title ************************************
 

 ***************************** General Parameters ******************************
  
 output verbosity                               : normal  (1)
 write checkpoint data to                       : Pbcn.check
 type of calculation                            : geometry optimization
 stress calculation                             : on
 density difference calculation                 : off
 electron localisation func (ELF) calculation   : off
 Hirshfeld analysis                             : off
 unlimited duration calculation
 timing information                             : on
 memory usage estimate                          : on
 write extra output files                       : on
 write final potential to formatted file        : off
 write final density to formatted file          : off
 write structure in CELL formatted file         : on
 write BibTeX reference list                    : on
 write OTFG pseudopotential files               : on
 write electrostatic potential file             : on
 write bands file                               : on
 checkpoint writing                             : both castep_bin and check files
  
 output         length unit                     : A
 output           mass unit                     : amu
 output           time unit                     : ps
 output         charge unit                     : e
 output           spin unit                     : hbar/2
 output         energy unit                     : eV
 output          force unit                     : eV/A
 output       velocity unit                     : A/ps
 output       pressure unit                     : GPa
 output     inv_length unit                     : 1/A
 output      frequency unit                     : cm-1
 output force constant unit                     : eV/A**2
 output         volume unit                     : A**3
 output   IR intensity unit                     : (D/A)**2/amu
 output         dipole unit                     : D
 output         efield unit                     : eV/A/e
 output        entropy unit                     : J/mol/K
  
 wavefunctions paging                           : none
 random number generator seed                   : randomised (33855497)
 data distribution                              : optimal for this architecture
 optimization strategy                          : maximize speed(+++)

 *********************** Exchange-Correlation Parameters ***********************
  
 using functional                               : Perdew Burke Ernzerhof
 relativistic treatment                         : Koelling-Harmon
 DFT+D: Semi-empirical dispersion correction    : off

 ************************* Pseudopotential Parameters **************************
  
 pseudopotential representation                 : reciprocal space
 <beta|phi> representation                      : reciprocal space
 spin-orbit coupling                            : off

 **************************** Basis Set Parameters *****************************
  
 plane wave basis set cut-off                   :  1600.0000   eV
 size of standard grid                          :     2.0000
 size of   fine   gmax                          :    40.9853   1/A
 finite basis set correction                    : automatic
 number of sample energies                      :          3
           sample  spacing                      :     5.0000   eV

 **************************** Electronic Parameters ****************************
  
 number of  electrons                           :  48.00    
 net charge of system                           :  0.000    
 treating system as non-spin-polarized
 number of bands                                :         24

 ********************* Electronic Minimization Parameters **********************
  
 Method: Treating system as non-metallic,
         and number of  SD  steps               :          1
         and number of  CG  steps               :          4
  
 total energy / atom convergence tol.           : 0.1000E-10   eV
 eigen-energy convergence tolerance             : 0.2000E-10   eV
 max force / atom convergence tol.              : ignored
 convergence tolerance window                   :          3   cycles
 max. number of SCF cycles                      :        100
 periodic dipole correction                     : NONE

 ************************** Density Mixing Parameters **************************
  
 density-mixing scheme                          : Broyden
 max. length of mixing history                  :         20
 charge density mixing amplitude                : 0.8000    
 cut-off energy for mixing                      :  1600.       eV

 *********************** Population Analysis Parameters ************************
  
 Population analysis with cutoff                :  3.000       A
 Population analysis output                     : summary and pdos components

 ********************** Geometry Optimization Parameters ***********************
  
 optimization method                            : LBFGS
 max. no. of LBFGS updates                      : unbounded
 variable cell method                           : fixed basis quality
 max. number of steps                           :        100
 estimated bulk modulus                         :  500.0       GPa
 estimated <frequency>                          :  1668.       cm-1
 geom line minimiser                            : on
 with line minimiser tolerance                  :     0.4000
 total energy convergence tolerance             : 0.1000E-08   eV/atom
        max ionic |force| tolerance             : 0.1000E-04   eV/A
 max ionic |displacement| tolerance             : 0.1000E-04   A
   max |stress component| tolerance             : 0.1000E-04   GPa
 convergence tolerance window                   :          2   steps
 backup results every                           :      14400   seconds
 write geom trajectory file                     : on

 *******************************************************************************
  

                           -------------------------------
                                      Unit Cell
                           -------------------------------
        Real Lattice(A)                      Reciprocal Lattice(1/A)
     3.2171517    -0.0000000     0.0000000        1.953027389   0.000000000   0.000000000
    -0.0000000     5.5893774     0.0000000        0.000000000   1.124129730   0.000000000
     0.0000000     0.0000000     5.6585510        0.000000000   0.000000000   1.110387672

                       Lattice parameters(A)       Cell Angles
                    a =      3.217152          alpha =   90.000000
                    b =      5.589377          beta  =   90.000000
                    c =      5.658551          gamma =   90.000000

                       Current cell volume =           101.751356       A**3
                                   density =             0.475484   AMU/A**3
                                           =             0.789559     g/cm^3

                           -------------------------------
                                     Cell Contents
                           -------------------------------
                         Total number of ions in cell =   48
                      Total number of species in cell =    1
                        Max number of any one species =   48

            xxxxxxxxxxxxxxxxxxxxxxxxxxxxxxxxxxxxxxxxxxxxxxxxxxxxxxxxxxxx
            x  Element    Atom        Fractional coordinates of atoms  x
            x            Number           u          v          w      x
            x----------------------------------------------------------x
            x  H            1         0.404012   0.120799   0.014073   x 
            x  H            2         0.572358   0.204913   0.040952   x 
            x  H            3         0.567680   0.551863   0.003225   x 
            x  H            4         0.119556   0.170154   0.247473   x 
            x  H            5         0.303468   0.356501   0.241063   x 
            x  H            6         0.184537   0.475364   0.251686   x 
            x  H            7         0.184537   0.524636   0.751686   x 
            x  H            8         0.303468   0.643499   0.741063   x 
            x  H            9         0.119556   0.829846   0.747473   x 
            x  H           10         0.567680   0.448137   0.503225   x 
            x  H           11         0.572358   0.795087   0.540952   x 
            x  H           12         0.404012   0.879201   0.514073   x 
            x  H           13         0.315463   0.975364   0.251686   x 
            x  H           14         0.196532   0.856501   0.241063   x 
            x  H           15         0.380444   0.670154   0.247473   x 
            x  H           16        -0.067680   0.051863   0.003225   x 
            x  H           17        -0.072358   0.704913   0.040952   x 
            x  H           18         0.095988   0.620799   0.014073   x 
            x  H           19         0.684537   0.975364   0.248314   x 
            x  H           20         0.803468   0.856501   0.258937   x 
            x  H           21         0.619556   0.670154   0.252527   x 
            x  H           22         1.067680   0.051863   0.496775   x 
            x  H           23         1.072358   0.704913   0.459048   x 
            x  H           24         0.904012   0.620799   0.485927   x 
            x  H           25         0.815463   0.524636   0.748314   x 
            x  H           26         0.696532   0.643499   0.758937   x 
            x  H           27         0.880444   0.829846   0.752527   x 
            x  H           28         0.432320   0.448137  -0.003225   x 
            x  H           29         0.427642   0.795087   0.959048   x 
            x  H           30         0.595988   0.879201   0.985927   x 
            x  H           31         0.815463   0.475364   0.248314   x 
            x  H           32         0.696532   0.356501   0.258937   x 
            x  H           33         0.880444   0.170154   0.252527   x 
            x  H           34         0.432320   0.551863   0.496775   x 
            x  H           35         0.427642   0.204913   0.459048   x 
            x  H           36         0.595988   0.120799   0.485927   x 
            x  H           37         0.684537   0.024636   0.748314   x 
            x  H           38         0.803468   0.143499   0.758937   x 
            x  H           39         0.619556   0.329846   0.752527   x 
            x  H           40         0.067680  -0.051863  -0.003225   x 
            x  H           41         1.072358   0.295087   0.959048   x 
            x  H           42         0.904012   0.379201   0.985927   x 
            x  H           43         0.315463   0.024636   0.751686   x 
            x  H           44         0.196532   0.143499   0.741063   x 
            x  H           45         0.380444   0.329846   0.747473   x 
            x  H           46         0.932320  -0.051863   0.503225   x 
            x  H           47        -0.072358   0.295087   0.540952   x 
            x  H           48         0.095988   0.379201   0.514073   x 
            xxxxxxxxxxxxxxxxxxxxxxxxxxxxxxxxxxxxxxxxxxxxxxxxxxxxxxxxxxxx


                         No user defined ionic velocities

                           -------------------------------
                                   Details of Species
                           -------------------------------

                               Mass of species in AMU
                                    H    1.0078250

                          Electric Quadrupole Moment (Barn)
                                    H    0.0028600 Isotope  2

                          Files used for pseudopotentials:
                                    H 0|0.7|2|6|8|10L(qc=10)

                           -------------------------------
                              k-Points For BZ Sampling
                           -------------------------------
                       MP grid size for SCF calculation is 12 12 12
                            with an offset of   0.000  0.000  0.000
                       Number of kpoints used =           216

                           -------------------------------
                               Symmetry and Constraints
                           -------------------------------

                      Maximum deviation from symmetry = 0.169621E-13     ANG

                      Number of symmetry operations   =           8
                      Number of ionic constraints     =           3
                      Point group of crystal =     8: D2h, mmm, 2/m 2/m 2/m
                      Space group of crystal =    60: Pbcn, -P 2n 2ab

             Set iprint > 1 for details on symmetry rotations/translations

                         Centre of mass is constrained
             Set iprint > 1 for details of linear ionic constraints

                         Number of cell constraints= 3
                         Cell constraints are:  1 2 3 0 0 0

                         External pressure/stress (GPa)
                         90.00000   0.00000   0.00000
                                   90.00000   0.00000
                                             90.00000
  
+---------------- MEMORY AND SCRATCH DISK ESTIMATES PER PROCESS --------------+
|                                                     Memory          Disk    |
| Baseline code, static data and system overhead      479.0 MB         0.0 MB |
| BLAS internal memory storage                          0.0 MB         0.0 MB |
| Model and support data                              116.5 MB         0.0 MB |
| Electronic energy minimisation requirements         153.7 MB         0.0 MB |
| Force calculation requirements                       29.0 MB         0.0 MB |
| Stress calculation requirements                      36.7 MB         0.0 MB |
|                                               ----------------------------- |
| Approx. total storage required per process          749.2 MB         0.0 MB |
|                                                                             |
| Requirements will fluctuate during execution and may exceed these estimates |
+-----------------------------------------------------------------------------+
Calculating finite basis set correction with  3 cut-off energies.
Calculating total energy with cut-off of 1590.000 eV.
------------------------------------------------------------------------ <-- SCF
SCF loop      Energy                           Energy gain       Timer   <-- SCF
                                               per atom          (sec)   <-- SCF
------------------------------------------------------------------------ <-- SCF
Initial   1.16688776E+003                                         14.44  <-- SCF
      1  -5.92948734E+002                    3.66632602E+001      36.35  <-- SCF
      2  -7.20176871E+002                    2.65058618E+000      51.33  <-- SCF
      3  -7.20102042E+002                   -1.55892717E-003      73.13  <-- SCF
      4  -7.20029431E+002                   -1.51273442E-003      94.84  <-- SCF
      5  -7.20031819E+002                    4.97592424E-005     116.42  <-- SCF
      6  -7.20031998E+002                    3.72685273E-006     138.09  <-- SCF
      7  -7.20031999E+002                    1.31233097E-008     159.73  <-- SCF
      8  -7.20031999E+002                    8.15471580E-010     181.39  <-- SCF
      9  -7.20031999E+002                    3.87945763E-011     197.63  <-- SCF
     10  -7.20031999E+002                    6.02200099E-013     213.02  <-- SCF
     11  -7.20031999E+002                    2.53769941E-013     228.41  <-- SCF
------------------------------------------------------------------------ <-- SCF
 
Final energy =  -720.0319989904     eV
(energy not corrected for finite basis set)
 
Calculating total energy with cut-off of 1595.000 eV.
------------------------------------------------------------------------ <-- SCF
SCF loop      Energy                           Energy gain       Timer   <-- SCF
                                               per atom          (sec)   <-- SCF
------------------------------------------------------------------------ <-- SCF
Initial  -7.20031999E+002                                        237.07  <-- SCF
      1  -7.20032101E+002                    2.11833992E-006     254.32  <-- SCF
      2  -7.20032101E+002                    1.74416483E-012     269.91  <-- SCF
      3  -7.20032101E+002                    5.52656553E-010     285.43  <-- SCF
      4  -7.20032101E+002                    3.02449461E-011     300.95  <-- SCF
      5  -7.20032101E+002                    1.29704637E-012     316.64  <-- SCF
      6  -7.20032101E+002                    3.14191356E-013     332.21  <-- SCF
------------------------------------------------------------------------ <-- SCF
 
Final energy =  -720.0321006989     eV
(energy not corrected for finite basis set)
 
Calculating total energy with cut-off of 1600.000 eV.
------------------------------------------------------------------------ <-- SCF
SCF loop      Energy                           Energy gain       Timer   <-- SCF
                                               per atom          (sec)   <-- SCF
------------------------------------------------------------------------ <-- SCF
Initial  -7.20032101E+002                                        340.84  <-- SCF
      1  -7.20032197E+002                    1.99759206E-006     358.24  <-- SCF
      2  -7.20032197E+002                    1.70589794E-012     373.75  <-- SCF
      3  -7.20032197E+002                    5.23509262E-010     389.22  <-- SCF
      4  -7.20032197E+002                    2.86155820E-011     404.75  <-- SCF
      5  -7.20032197E+002                    1.15203497E-012     420.33  <-- SCF
      6  -7.20032197E+002                   -3.22247544E-014     435.79  <-- SCF
------------------------------------------------------------------------ <-- SCF
 
Final energy =  -720.0321966099     eV
(energy not corrected for finite basis set)
 
 For future reference: finite basis dEtot/dlog(Ecut) =      -0.031462eV
 Total energy corrected for finite basis set =    -720.032196 eV
 
+---------------- MEMORY AND SCRATCH DISK ESTIMATES PER PROCESS --------------+
|                                                     Memory          Disk    |
| Model and support data                              115.9 MB         0.0 MB |
| Electronic energy minimisation requirements         153.7 MB         0.0 MB |
| Geometry minimisation requirements                  196.1 MB         0.0 MB |
|                                               ----------------------------- |
| Approx. total storage required per process          465.7 MB         0.0 MB |
|                                                                             |
| Requirements will fluctuate during execution and may exceed these estimates |
+-----------------------------------------------------------------------------+
 

 ******************************** Symmetrised Forces ********************************
 *                                                                                  *
 *                           Cartesian components (eV/A)                            *
 * -------------------------------------------------------------------------------- *
 *                         x                    y                    z              *
 *                                                                                  *
 * H               1      0.00000              0.00000              0.00000         *
 * H               2     -0.00000             -0.00000              0.00000         *
 * H               3     -0.00000              0.00000             -0.00000         *
 * H               4     -0.00000              0.00000              0.00000         *
 * H               5      0.00000              0.00000             -0.00000         *
 * H               6     -0.00000             -0.00000              0.00000         *
 * H               7     -0.00000              0.00000              0.00000         *
 * H               8      0.00000             -0.00000             -0.00000         *
 * H               9     -0.00000             -0.00000              0.00000         *
 * H              10     -0.00000             -0.00000             -0.00000         *
 * H              11     -0.00000              0.00000              0.00000         *
 * H              12      0.00000             -0.00000              0.00000         *
 * H              13      0.00000             -0.00000              0.00000         *
 * H              14     -0.00000              0.00000             -0.00000         *
 * H              15      0.00000              0.00000              0.00000         *
 * H              16      0.00000              0.00000             -0.00000         *
 * H              17      0.00000             -0.00000              0.00000         *
 * H              18     -0.00000              0.00000              0.00000         *
 * H              19     -0.00000             -0.00000             -0.00000         *
 * H              20      0.00000              0.00000              0.00000         *
 * H              21     -0.00000              0.00000             -0.00000         *
 * H              22     -0.00000              0.00000              0.00000         *
 * H              23     -0.00000             -0.00000             -0.00000         *
 * H              24      0.00000              0.00000             -0.00000         *
 * H              25      0.00000              0.00000             -0.00000         *
 * H              26     -0.00000             -0.00000              0.00000         *
 * H              27      0.00000             -0.00000             -0.00000         *
 * H              28      0.00000             -0.00000              0.00000         *
 * H              29      0.00000              0.00000             -0.00000         *
 * H              30     -0.00000             -0.00000             -0.00000         *
 * H              31      0.00000             -0.00000             -0.00000         *
 * H              32     -0.00000              0.00000              0.00000         *
 * H              33      0.00000              0.00000             -0.00000         *
 * H              34      0.00000              0.00000              0.00000         *
 * H              35      0.00000             -0.00000             -0.00000         *
 * H              36     -0.00000              0.00000             -0.00000         *
 * H              37     -0.00000              0.00000             -0.00000         *
 * H              38      0.00000             -0.00000              0.00000         *
 * H              39     -0.00000             -0.00000             -0.00000         *
 * H              40     -0.00000             -0.00000              0.00000         *
 * H              41     -0.00000              0.00000             -0.00000         *
 * H              42      0.00000             -0.00000             -0.00000         *
 * H              43      0.00000              0.00000              0.00000         *
 * H              44     -0.00000             -0.00000             -0.00000         *
 * H              45      0.00000             -0.00000              0.00000         *
 * H              46      0.00000             -0.00000             -0.00000         *
 * H              47      0.00000              0.00000              0.00000         *
 * H              48     -0.00000             -0.00000              0.00000         *
 *                                                                                  *
 ************************************************************************************

 *********** Symmetrised Stress Tensor ***********
 *                                               *
 *          Cartesian components (GPa)           *
 * --------------------------------------------- *
 *             x             y             z     *
 *                                               *
 *  x   -119.996505      0.000000      0.000000  *
 *  y      0.000000   -119.996497      0.000000  *
 *  z      0.000000      0.000000   -119.996513  *
 *                                               *
 *  Pressure:  119.9965                          *
 *                                               *
 *************************************************
 LBFGS: finished iteration     0 with enthalpy= -6.62874815E+002 eV
  
 +-----------+-----------------+-----------------+------------+-----+ <-- LBFGS
 | Parameter |      value      |    tolerance    |    units   | OK? | <-- LBFGS
 +-----------+-----------------+-----------------+------------+-----+ <-- LBFGS
 |  dE/ion   |   0.000000E+000 |   1.000000E-009 |         eV | No  | <-- LBFGS
 |  |F|max   |   2.654071E-006 |   1.000000E-005 |       eV/A | Yes | <-- LBFGS
 |  |dR|max  |   0.000000E+000 |   1.000000E-005 |          A | No  | <-- LBFGS
 |   Smax    |   2.999651E+001 |   1.000000E-005 |        GPa | No  | <-- LBFGS
 +-----------+-----------------+-----------------+------------+-----+ <-- LBFGS
  

================================================================================
 Starting LBFGS iteration          1 ...
================================================================================
  
 +------------+-------------+-------------+-----------------+ <-- min LBFGS
 |    Step    |   lambda    |   F.delta'  |    enthalpy     | <-- min LBFGS
 +------------+-------------+-------------+-----------------+ <-- min LBFGS
 |  previous  |    0.000000 |    1.212580 |     -662.874815 | <-- min LBFGS
 +------------+-------------+-------------+-----------------+ <-- min LBFGS
  

--------------------------------------------------------------------------------
 LBFGS: starting iteration         1 with trial guess (lambda=  1.000000)
--------------------------------------------------------------------------------
 
+---------------- MEMORY AND SCRATCH DISK ESTIMATES PER PROCESS --------------+
|                                                     Memory          Disk    |
| Model and support data                              121.7 MB         0.0 MB |
| Electronic energy minimisation requirements         163.1 MB         0.0 MB |
| Geometry minimisation requirements                  208.1 MB         0.0 MB |
|                                               ----------------------------- |
| Approx. total storage required per process          492.9 MB         0.0 MB |
|                                                                             |
| Requirements will fluctuate during execution and may exceed these estimates |
+-----------------------------------------------------------------------------+
 

                           -------------------------------
                                      Unit Cell
                           -------------------------------
        Real Lattice(A)              Reciprocal Lattice(1/A)
     3.2814872    -0.0000000     0.0000000        1.914737108   0.000000000   0.000000000
    -0.0000000     5.7011519     0.0000000        0.000000000   1.102090495   0.000000000
     0.0000000     0.0000000     5.7717089        0.000000000   0.000000000   1.088617846

                       Lattice parameters(A)       Cell Angles
                    a =      3.281487          alpha =   90.000000
                    b =      5.701152          beta  =   90.000000
                    c =      5.771709          gamma =   90.000000

                Current cell volume =           107.978613 A**3

                           -------------------------------
                                     Cell Contents
                           -------------------------------

            xxxxxxxxxxxxxxxxxxxxxxxxxxxxxxxxxxxxxxxxxxxxxxxxxxxxxxxxxxxxxxxxx
            x  Element         Atom        Fractional coordinates of atoms  x
            x                 Number           u          v          w      x
            x---------------------------------------------------------------x
            x  H                 1         0.404012   0.120799   0.014073   x
            x  H                 2         0.572358   0.204913   0.040952   x
            x  H                 3         0.567680   0.551863   0.003225   x
            x  H                 4         0.119556   0.170154   0.247473   x
            x  H                 5         0.303468   0.356501   0.241063   x
            x  H                 6         0.184537   0.475364   0.251686   x
            x  H                 7         0.184537   0.524636   0.751686   x
            x  H                 8         0.303468   0.643499   0.741063   x
            x  H                 9         0.119556   0.829846   0.747473   x
            x  H                10         0.567680   0.448137   0.503225   x
            x  H                11         0.572358   0.795087   0.540952   x
            x  H                12         0.404012   0.879201   0.514073   x
            x  H                13         0.315463   0.975364   0.251686   x
            x  H                14         0.196532   0.856501   0.241063   x
            x  H                15         0.380444   0.670154   0.247473   x
            x  H                16        -0.067680   0.051863   0.003225   x
            x  H                17        -0.072358   0.704913   0.040952   x
            x  H                18         0.095988   0.620799   0.014073   x
            x  H                19         0.684537   0.975364   0.248314   x
            x  H                20         0.803468   0.856501   0.258937   x
            x  H                21         0.619556   0.670154   0.252527   x
            x  H                22         1.067680   0.051863   0.496775   x
            x  H                23         1.072358   0.704913   0.459048   x
            x  H                24         0.904012   0.620799   0.485927   x
            x  H                25         0.815463   0.524636   0.748314   x
            x  H                26         0.696532   0.643499   0.758937   x
            x  H                27         0.880444   0.829846   0.752527   x
            x  H                28         0.432320   0.448137  -0.003225   x
            x  H                29         0.427642   0.795087   0.959048   x
            x  H                30         0.595988   0.879201   0.985927   x
            x  H                31         0.815463   0.475364   0.248314   x
            x  H                32         0.696532   0.356501   0.258937   x
            x  H                33         0.880444   0.170154   0.252527   x
            x  H                34         0.432320   0.551863   0.496775   x
            x  H                35         0.427642   0.204913   0.459048   x
            x  H                36         0.595988   0.120799   0.485927   x
            x  H                37         0.684537   0.024636   0.748314   x
            x  H                38         0.803468   0.143499   0.758937   x
            x  H                39         0.619556   0.329846   0.752527   x
            x  H                40         0.067680  -0.051863  -0.003225   x
            x  H                41         1.072358   0.295087   0.959048   x
            x  H                42         0.904012   0.379201   0.985927   x
            x  H                43         0.315463   0.024636   0.751686   x
            x  H                44         0.196532   0.143499   0.741063   x
            x  H                45         0.380444   0.329846   0.747473   x
            x  H                46         0.932320  -0.051863   0.503225   x
            x  H                47        -0.072358   0.295087   0.540952   x
            x  H                48         0.095988   0.379201   0.514073   x
            xxxxxxxxxxxxxxxxxxxxxxxxxxxxxxxxxxxxxxxxxxxxxxxxxxxxxxxxxxxxxxxxx


------------------------------------------------------------------------ <-- SCF
SCF loop      Energy                           Energy gain       Timer   <-- SCF
                                               per atom          (sec)   <-- SCF
------------------------------------------------------------------------ <-- SCF
Initial  -7.24143867E+002                                        458.47  <-- SCF
      1  -7.24287217E+002                    2.98644255E-003     476.48  <-- SCF
      2  -7.24287783E+002                    1.18058717E-005     499.84  <-- SCF
      3  -7.24283158E+002                   -9.63516212E-005     522.60  <-- SCF
      4  -7.24283032E+002                   -2.63314030E-006     545.54  <-- SCF
      5  -7.24283037E+002                    9.62543607E-008     568.22  <-- SCF
      6  -7.24283037E+002                    9.06137336E-009     590.87  <-- SCF
      7  -7.24283037E+002                    5.10601234E-011     607.63  <-- SCF
      8  -7.24283037E+002                    3.37957112E-012     624.05  <-- SCF
      9  -7.24283037E+002                    3.80654912E-013     640.46  <-- SCF
------------------------------------------------------------------------ <-- SCF
 
Final energy =  -724.2830370104     eV
(energy not corrected for finite basis set)
 

 ******************************** Symmetrised Forces ********************************
 *                                                                                  *
 *                           Cartesian components (eV/A)                            *
 * -------------------------------------------------------------------------------- *
 *                         x                    y                    z              *
 *                                                                                  *
 * H               1      0.29528              0.25881              0.08624         *
 * H               2     -0.29939             -0.25857             -0.08340         *
 * H               3     -0.24791             -0.33100             -0.02127         *
 * H               4     -0.35167              0.00530              0.01448         *
 * H               5     -0.18112              0.30165              0.03149         *
 * H               6      0.16965             -0.30915             -0.02882         *
 * H               7      0.16965              0.30915             -0.02882         *
 * H               8     -0.18112             -0.30165              0.03149         *
 * H               9     -0.35167             -0.00530              0.01448         *
 * H              10     -0.24791              0.33100             -0.02127         *
 * H              11     -0.29939              0.25857             -0.08340         *
 * H              12      0.29528             -0.25881              0.08624         *
 * H              13     -0.16965             -0.30915             -0.02882         *
 * H              14      0.18112              0.30165              0.03149         *
 * H              15      0.35167              0.00530              0.01448         *
 * H              16      0.24791             -0.33100             -0.02127         *
 * H              17      0.29939             -0.25857             -0.08340         *
 * H              18     -0.29528              0.25881              0.08624         *
 * H              19      0.16965             -0.30915              0.02882         *
 * H              20     -0.18112              0.30165             -0.03149         *
 * H              21     -0.35167              0.00530             -0.01448         *
 * H              22     -0.24791             -0.33100              0.02127         *
 * H              23     -0.29939             -0.25857              0.08340         *
 * H              24      0.29528              0.25881             -0.08624         *
 * H              25     -0.16965              0.30915              0.02882         *
 * H              26      0.18112             -0.30165             -0.03149         *
 * H              27      0.35167             -0.00530             -0.01448         *
 * H              28      0.24791              0.33100              0.02127         *
 * H              29      0.29939              0.25857              0.08340         *
 * H              30     -0.29528             -0.25881             -0.08624         *
 * H              31     -0.16965             -0.30915              0.02882         *
 * H              32      0.18112              0.30165             -0.03149         *
 * H              33      0.35167              0.00530             -0.01448         *
 * H              34      0.24791             -0.33100              0.02127         *
 * H              35      0.29939             -0.25857              0.08340         *
 * H              36     -0.29528              0.25881             -0.08624         *
 * H              37      0.16965              0.30915              0.02882         *
 * H              38     -0.18112             -0.30165             -0.03149         *
 * H              39     -0.35167             -0.00530             -0.01448         *
 * H              40     -0.24791              0.33100              0.02127         *
 * H              41     -0.29939              0.25857              0.08340         *
 * H              42      0.29528             -0.25881             -0.08624         *
 * H              43     -0.16965              0.30915             -0.02882         *
 * H              44      0.18112             -0.30165              0.03149         *
 * H              45      0.35167             -0.00530              0.01448         *
 * H              46      0.24791              0.33100             -0.02127         *
 * H              47      0.29939              0.25857             -0.08340         *
 * H              48     -0.29528             -0.25881              0.08624         *
 *                                                                                  *
 ************************************************************************************

 *********** Symmetrised Stress Tensor ***********
 *                                               *
 *          Cartesian components (GPa)           *
 * --------------------------------------------- *
 *             x             y             z     *
 *                                               *
 *  x    -97.474491     -0.000000      0.000000  *
 *  y     -0.000000    -97.495942      0.000000  *
 *  z      0.000000      0.000000   -103.303400  *
 *                                               *
 *  Pressure:   99.4246                          *
 *                                               *
 *************************************************
  
 +------------+-------------+-------------+-----------------+ <-- min LBFGS
 |    Step    |   lambda    |   F.delta'  |    enthalpy     | <-- min LBFGS
 +------------+-------------+-------------+-----------------+ <-- min LBFGS
 |  previous  |    0.000000 |    1.212580 |     -662.874815 | <-- min LBFGS
 | trial step |    1.000000 |    0.396372 |     -663.627582 | <-- min LBFGS
 +------------+-------------+-------------+-----------------+ <-- min LBFGS
  

--------------------------------------------------------------------------------
 LBFGS: improving iteration         1 with line minimization (lambda=  1.485626)
--------------------------------------------------------------------------------
 
+---------------- MEMORY AND SCRATCH DISK ESTIMATES PER PROCESS --------------+
|                                                     Memory          Disk    |
| Model and support data                              126.1 MB         0.0 MB |
| Electronic energy minimisation requirements         168.8 MB         0.0 MB |
| Geometry minimisation requirements                  215.2 MB         0.0 MB |
|                                               ----------------------------- |
| Approx. total storage required per process          510.1 MB         0.0 MB |
|                                                                             |
| Requirements will fluctuate during execution and may exceed these estimates |
+-----------------------------------------------------------------------------+
 

                           -------------------------------
                                      Unit Cell
                           -------------------------------
        Real Lattice(A)              Reciprocal Lattice(1/A)
     3.3127302    -0.0000000     0.0000000        1.896678844   0.000000000   0.000000000
    -0.0000000     5.7554325     0.0000000        0.000000000   1.091696464   0.000000000
     0.0000000     0.0000000     5.8266613        0.000000000   0.000000000   1.078350873

                       Lattice parameters(A)       Cell Angles
                    a =      3.312730          alpha =   90.000000
                    b =      5.755432          beta  =   90.000000
                    c =      5.826661          gamma =   90.000000

                Current cell volume =           111.092261 A**3

                           -------------------------------
                                     Cell Contents
                           -------------------------------

            xxxxxxxxxxxxxxxxxxxxxxxxxxxxxxxxxxxxxxxxxxxxxxxxxxxxxxxxxxxxxxxxx
            x  Element         Atom        Fractional coordinates of atoms  x
            x                 Number           u          v          w      x
            x---------------------------------------------------------------x
            x  H                 1         0.404012   0.120799   0.014073   x
            x  H                 2         0.572358   0.204913   0.040952   x
            x  H                 3         0.567680   0.551863   0.003225   x
            x  H                 4         0.119556   0.170154   0.247473   x
            x  H                 5         0.303468   0.356501   0.241063   x
            x  H                 6         0.184537   0.475364   0.251686   x
            x  H                 7         0.184537   0.524636   0.751686   x
            x  H                 8         0.303468   0.643499   0.741063   x
            x  H                 9         0.119556   0.829846   0.747473   x
            x  H                10         0.567680   0.448137   0.503225   x
            x  H                11         0.572358   0.795087   0.540952   x
            x  H                12         0.404012   0.879201   0.514073   x
            x  H                13         0.315463   0.975364   0.251686   x
            x  H                14         0.196532   0.856501   0.241063   x
            x  H                15         0.380444   0.670154   0.247473   x
            x  H                16        -0.067680   0.051863   0.003225   x
            x  H                17        -0.072358   0.704913   0.040952   x
            x  H                18         0.095988   0.620799   0.014073   x
            x  H                19         0.684537   0.975364   0.248314   x
            x  H                20         0.803468   0.856501   0.258937   x
            x  H                21         0.619556   0.670154   0.252527   x
            x  H                22         1.067680   0.051863   0.496775   x
            x  H                23         1.072358   0.704913   0.459048   x
            x  H                24         0.904012   0.620799   0.485927   x
            x  H                25         0.815463   0.524636   0.748314   x
            x  H                26         0.696532   0.643499   0.758937   x
            x  H                27         0.880444   0.829846   0.752527   x
            x  H                28         0.432320   0.448137  -0.003225   x
            x  H                29         0.427642   0.795087   0.959048   x
            x  H                30         0.595988   0.879201   0.985927   x
            x  H                31         0.815463   0.475364   0.248314   x
            x  H                32         0.696532   0.356501   0.258937   x
            x  H                33         0.880444   0.170154   0.252527   x
            x  H                34         0.432320   0.551863   0.496775   x
            x  H                35         0.427642   0.204913   0.459048   x
            x  H                36         0.595988   0.120799   0.485927   x
            x  H                37         0.684537   0.024636   0.748314   x
            x  H                38         0.803468   0.143499   0.758937   x
            x  H                39         0.619556   0.329846   0.752527   x
            x  H                40         0.067680  -0.051863  -0.003225   x
            x  H                41         1.072358   0.295087   0.959048   x
            x  H                42         0.904012   0.379201   0.985927   x
            x  H                43         0.315463   0.024636   0.751686   x
            x  H                44         0.196532   0.143499   0.741063   x
            x  H                45         0.380444   0.329846   0.747473   x
            x  H                46         0.932320  -0.051863   0.503225   x
            x  H                47        -0.072358   0.295087   0.540952   x
            x  H                48         0.095988   0.379201   0.514073   x
            xxxxxxxxxxxxxxxxxxxxxxxxxxxxxxxxxxxxxxxxxxxxxxxxxxxxxxxxxxxxxxxxx


------------------------------------------------------------------------ <-- SCF
SCF loop      Energy                           Energy gain       Timer   <-- SCF
                                               per atom          (sec)   <-- SCF
------------------------------------------------------------------------ <-- SCF
Initial  -7.26094929E+002                                        664.41  <-- SCF
      1  -7.26128551E+002                    7.00461822E-004     682.98  <-- SCF
      2  -7.26128684E+002                    2.77435876E-006     707.23  <-- SCF
      3  -7.26127584E+002                   -2.29180172E-005     731.02  <-- SCF
      4  -7.26127554E+002                   -6.19478694E-007     754.74  <-- SCF
      5  -7.26127556E+002                    2.40695633E-008     778.33  <-- SCF
      6  -7.26127556E+002                    2.27811492E-009     801.90  <-- SCF
      7  -7.26127556E+002                    1.31376296E-011     818.76  <-- SCF
      8  -7.26127556E+002                    2.65854224E-013     835.62  <-- SCF
      9  -7.26127556E+002                    5.37750590E-013     852.61  <-- SCF
------------------------------------------------------------------------ <-- SCF
 
Final energy =  -726.1275556168     eV
(energy not corrected for finite basis set)
 

 ******************************** Symmetrised Forces ********************************
 *                                                                                  *
 *                           Cartesian components (eV/A)                            *
 * -------------------------------------------------------------------------------- *
 *                         x                    y                    z              *
 *                                                                                  *
 * H               1      0.43009              0.37692              0.12565         *
 * H               2     -0.43599             -0.37655             -0.12138         *
 * H               3     -0.36090             -0.48186             -0.03096         *
 * H               4     -0.51225              0.00775              0.02106         *
 * H               5     -0.26382              0.43936              0.04582         *
 * H               6      0.24710             -0.45029             -0.04197         *
 * H               7      0.24710              0.45029             -0.04197         *
 * H               8     -0.26382             -0.43936              0.04582         *
 * H               9     -0.51225             -0.00775              0.02106         *
 * H              10     -0.36090              0.48186             -0.03096         *
 * H              11     -0.43599              0.37655             -0.12138         *
 * H              12      0.43009             -0.37692              0.12565         *
 * H              13     -0.24710             -0.45029             -0.04197         *
 * H              14      0.26382              0.43936              0.04582         *
 * H              15      0.51225              0.00775              0.02106         *
 * H              16      0.36090             -0.48186             -0.03096         *
 * H              17      0.43599             -0.37655             -0.12138         *
 * H              18     -0.43009              0.37692              0.12565         *
 * H              19      0.24710             -0.45029              0.04197         *
 * H              20     -0.26382              0.43936             -0.04582         *
 * H              21     -0.51225              0.00775             -0.02106         *
 * H              22     -0.36090             -0.48186              0.03096         *
 * H              23     -0.43599             -0.37655              0.12138         *
 * H              24      0.43009              0.37692             -0.12565         *
 * H              25     -0.24710              0.45029              0.04197         *
 * H              26      0.26382             -0.43936             -0.04582         *
 * H              27      0.51225             -0.00775             -0.02106         *
 * H              28      0.36090              0.48186              0.03096         *
 * H              29      0.43599              0.37655              0.12138         *
 * H              30     -0.43009             -0.37692             -0.12565         *
 * H              31     -0.24710             -0.45029              0.04197         *
 * H              32      0.26382              0.43936             -0.04582         *
 * H              33      0.51225              0.00775             -0.02106         *
 * H              34      0.36090             -0.48186              0.03096         *
 * H              35      0.43599             -0.37655              0.12138         *
 * H              36     -0.43009              0.37692             -0.12565         *
 * H              37      0.24710              0.45029              0.04197         *
 * H              38     -0.26382             -0.43936             -0.04582         *
 * H              39     -0.51225             -0.00775             -0.02106         *
 * H              40     -0.36090              0.48186              0.03096         *
 * H              41     -0.43599              0.37655              0.12138         *
 * H              42      0.43009             -0.37692             -0.12565         *
 * H              43     -0.24710              0.45029             -0.04197         *
 * H              44      0.26382             -0.43936              0.04582         *
 * H              45      0.51225             -0.00775              0.02106         *
 * H              46      0.36090              0.48186             -0.03096         *
 * H              47      0.43599              0.37655             -0.12138         *
 * H              48     -0.43009             -0.37692              0.12565         *
 *                                                                                  *
 ************************************************************************************

 *********** Symmetrised Stress Tensor ***********
 *                                               *
 *          Cartesian components (GPa)           *
 * --------------------------------------------- *
 *             x             y             z     *
 *                                               *
 *  x    -87.768059      0.000000      0.000000  *
 *  y      0.000000    -87.798381      0.000000  *
 *  z      0.000000      0.000000    -96.085983  *
 *                                               *
 *  Pressure:   90.5508                          *
 *                                               *
 *************************************************
  
 +------------+-------------+-------------+-----------------+ <-- min LBFGS
 |    Step    |   lambda    |   F.delta'  |    enthalpy     | <-- min LBFGS
 +------------+-------------+-------------+-----------------+ <-- min LBFGS
 |  previous  |    0.000000 |    1.212580 |     -662.874815 | <-- min LBFGS
 | trial step |    1.000000 |    0.396372 |     -663.627582 | <-- min LBFGS
 |  line step |    1.485626 |    0.023610 |     -663.723053 | <-- min LBFGS
 +------------+-------------+-------------+-----------------+ <-- min LBFGS
  
 LBFGS: finished iteration     1 with enthalpy= -6.63723053E+002 eV
  
 +-----------+-----------------+-----------------+------------+-----+ <-- LBFGS
 | Parameter |      value      |    tolerance    |    units   | OK? | <-- LBFGS
 +-----------+-----------------+-----------------+------------+-----+ <-- LBFGS
 |  dE/ion   |   1.767162E-002 |   1.000000E-009 |         eV | No  | <-- LBFGS
 |  |F|max   |   6.028214E-001 |   1.000000E-005 |       eV/A | No  | <-- LBFGS
 |  |dR|max  |   3.938338E-007 |   1.000000E-005 |          A | Yes | <-- LBFGS
 |   Smax    |   6.085983E+000 |   1.000000E-005 |        GPa | No  | <-- LBFGS
 +-----------+-----------------+-----------------+------------+-----+ <-- LBFGS
  

================================================================================
 Starting LBFGS iteration          2 ...
================================================================================
  
 +------------+-------------+-------------+-----------------+ <-- min LBFGS
 |    Step    |   lambda    |   F.delta'  |    enthalpy     | <-- min LBFGS
 +------------+-------------+-------------+-----------------+ <-- min LBFGS
 |  previous  |    0.000000 |    0.533328 |     -663.723053 | <-- min LBFGS
 +------------+-------------+-------------+-----------------+ <-- min LBFGS
  

--------------------------------------------------------------------------------
 LBFGS: starting iteration         2 with trial guess (lambda=  1.000000)
--------------------------------------------------------------------------------
 
+---------------- MEMORY AND SCRATCH DISK ESTIMATES PER PROCESS --------------+
|                                                     Memory          Disk    |
| Model and support data                              131.0 MB         0.0 MB |
| Electronic energy minimisation requirements         180.9 MB         0.0 MB |
| Geometry minimisation requirements                  230.8 MB         0.0 MB |
|                                               ----------------------------- |
| Approx. total storage required per process          542.6 MB         0.0 MB |
|                                                                             |
| Requirements will fluctuate during execution and may exceed these estimates |
+-----------------------------------------------------------------------------+
 

                           -------------------------------
                                      Unit Cell
                           -------------------------------
        Real Lattice(A)              Reciprocal Lattice(1/A)
     3.3983896    -0.0000000     0.0000000        1.848871387   0.000000000   0.000000000
    -0.0000000     5.9043766     0.0000000        0.000000000   1.064157282   0.000000000
     0.0000000     0.0000000     6.0112562        0.000000000   0.000000000   1.045236661

                       Lattice parameters(A)       Cell Angles
                    a =      3.398390          alpha =   90.000000
                    b =      5.904377          beta  =   90.000000
                    c =      6.011256          gamma =   90.000000

                Current cell volume =           120.618090 A**3

                           -------------------------------
                                     Cell Contents
                           -------------------------------

            xxxxxxxxxxxxxxxxxxxxxxxxxxxxxxxxxxxxxxxxxxxxxxxxxxxxxxxxxxxxxxxxx
            x  Element         Atom        Fractional coordinates of atoms  x
            x                 Number           u          v          w      x
            x---------------------------------------------------------------x
            x  H                 1         0.417630   0.127669   0.016335   x
            x  H                 2         0.558553   0.198050   0.038767   x
            x  H                 3         0.556252   0.543082   0.002668   x
            x  H                 4         0.103337   0.170295   0.247853   x
            x  H                 5         0.295114   0.364509   0.241888   x
            x  H                 6         0.192361   0.467157   0.250930   x
            x  H                 7         0.192361   0.532843   0.750930   x
            x  H                 8         0.295114   0.635491   0.741888   x
            x  H                 9         0.103337   0.829705   0.747853   x
            x  H                10         0.556252   0.456918   0.502668   x
            x  H                11         0.558553   0.801950   0.538767   x
            x  H                12         0.417630   0.872331   0.516335   x
            x  H                13         0.307639   0.967157   0.250930   x
            x  H                14         0.204886   0.864509   0.241888   x
            x  H                15         0.396663   0.670295   0.247853   x
            x  H                16        -0.056252   0.043082   0.002668   x
            x  H                17        -0.058553   0.698050   0.038767   x
            x  H                18         0.082370   0.627669   0.016335   x
            x  H                19         0.692361   0.967157   0.249070   x
            x  H                20         0.795114   0.864509   0.258112   x
            x  H                21         0.603337   0.670295   0.252147   x
            x  H                22         1.056252   0.043082   0.497332   x
            x  H                23         1.058553   0.698050   0.461233   x
            x  H                24         0.917630   0.627669   0.483665   x
            x  H                25         0.807639   0.532843   0.749070   x
            x  H                26         0.704886   0.635491   0.758112   x
            x  H                27         0.896663   0.829705   0.752147   x
            x  H                28         0.443748   0.456918  -0.002668   x
            x  H                29         0.441447   0.801950   0.961233   x
            x  H                30         0.582370   0.872331   0.983665   x
            x  H                31         0.807639   0.467157   0.249070   x
            x  H                32         0.704886   0.364509   0.258112   x
            x  H                33         0.896663   0.170295   0.252147   x
            x  H                34         0.443748   0.543082   0.497332   x
            x  H                35         0.441447   0.198050   0.461233   x
            x  H                36         0.582370   0.127669   0.483665   x
            x  H                37         0.692361   0.032843   0.749070   x
            x  H                38         0.795114   0.135491   0.758112   x
            x  H                39         0.603337   0.329705   0.752147   x
            x  H                40         0.056252  -0.043082  -0.002668   x
            x  H                41         1.058553   0.301950   0.961233   x
            x  H                42         0.917630   0.372331   0.983665   x
            x  H                43         0.307639   0.032843   0.750930   x
            x  H                44         0.204886   0.135491   0.741888   x
            x  H                45         0.396663   0.329705   0.747853   x
            x  H                46         0.943748  -0.043082   0.502668   x
            x  H                47        -0.058553   0.301950   0.538767   x
            x  H                48         0.082370   0.372331   0.516335   x
            xxxxxxxxxxxxxxxxxxxxxxxxxxxxxxxxxxxxxxxxxxxxxxxxxxxxxxxxxxxxxxxxx


------------------------------------------------------------------------ <-- SCF
SCF loop      Energy                           Energy gain       Timer   <-- SCF
                                               per atom          (sec)   <-- SCF
------------------------------------------------------------------------ <-- SCF
Initial  -7.11943492E+002                                        877.46  <-- SCF
      1  -7.30640461E+002                    3.89520190E-001     896.38  <-- SCF
      2  -7.30753036E+002                    2.34531447E-003     920.37  <-- SCF
      3  -7.28849230E+002                   -3.96626215E-002     944.32  <-- SCF
      4  -7.28769463E+002                   -1.66180472E-003     968.35  <-- SCF
      5  -7.28770313E+002                    1.77129322E-005     992.39  <-- SCF
      6  -7.28770396E+002                    1.71169497E-006    1016.39  <-- SCF
      7  -7.28770397E+002                    3.35379273E-008    1040.47  <-- SCF
      8  -7.28770397E+002                    1.49309774E-009    1064.46  <-- SCF
      9  -7.28770397E+002                    1.19179226E-010    1081.81  <-- SCF
     10  -7.28770397E+002                    1.77638959E-012    1098.91  <-- SCF
     11  -7.28770397E+002                    4.77329175E-013    1116.00  <-- SCF
------------------------------------------------------------------------ <-- SCF
 
Final energy =  -728.7703973479     eV
(energy not corrected for finite basis set)
 

 ******************************** Symmetrised Forces ********************************
 *                                                                                  *
 *                           Cartesian components (eV/A)                            *
 * -------------------------------------------------------------------------------- *
 *                         x                    y                    z              *
 *                                                                                  *
 * H               1     -3.03979             -2.62232             -0.74000         *
 * H               2      3.09433              2.69290              0.99946         *
 * H               3      2.72780              3.63582              0.23364         *
 * H               4      1.72497             -0.07894             -0.06611         *
 * H               5      0.96489             -1.49147             -0.13029         *
 * H               6     -0.78352              1.55850              0.15765         *
 * H               7     -0.78352             -1.55850              0.15765         *
 * H               8      0.96489              1.49147             -0.13029         *
 * H               9      1.72497              0.07894             -0.06611         *
 * H              10      2.72780             -3.63582              0.23364         *
 * H              11      3.09433             -2.69290              0.99946         *
 * H              12     -3.03979              2.62232             -0.74000         *
 * H              13      0.78352              1.55850              0.15765         *
 * H              14     -0.96489             -1.49147             -0.13029         *
 * H              15     -1.72497             -0.07894             -0.06611         *
 * H              16     -2.72780              3.63582              0.23364         *
 * H              17     -3.09433              2.69290              0.99946         *
 * H              18      3.03979             -2.62232             -0.74000         *
 * H              19     -0.78352              1.55850             -0.15765         *
 * H              20      0.96489             -1.49147              0.13029         *
 * H              21      1.72497             -0.07894              0.06611         *
 * H              22      2.72780              3.63582             -0.23364         *
 * H              23      3.09433              2.69290             -0.99946         *
 * H              24     -3.03979             -2.62232              0.74000         *
 * H              25      0.78352             -1.55850             -0.15765         *
 * H              26     -0.96489              1.49147              0.13029         *
 * H              27     -1.72497              0.07894              0.06611         *
 * H              28     -2.72780             -3.63582             -0.23364         *
 * H              29     -3.09433             -2.69290             -0.99946         *
 * H              30      3.03979              2.62232              0.74000         *
 * H              31      0.78352              1.55850             -0.15765         *
 * H              32     -0.96489             -1.49147              0.13029         *
 * H              33     -1.72497             -0.07894              0.06611         *
 * H              34     -2.72780              3.63582             -0.23364         *
 * H              35     -3.09433              2.69290             -0.99946         *
 * H              36      3.03979             -2.62232              0.74000         *
 * H              37     -0.78352             -1.55850             -0.15765         *
 * H              38      0.96489              1.49147              0.13029         *
 * H              39      1.72497              0.07894              0.06611         *
 * H              40      2.72780             -3.63582             -0.23364         *
 * H              41      3.09433             -2.69290             -0.99946         *
 * H              42     -3.03979              2.62232              0.74000         *
 * H              43      0.78352             -1.55850              0.15765         *
 * H              44     -0.96489              1.49147             -0.13029         *
 * H              45     -1.72497              0.07894             -0.06611         *
 * H              46     -2.72780             -3.63582              0.23364         *
 * H              47     -3.09433             -2.69290              0.99946         *
 * H              48      3.03979              2.62232             -0.74000         *
 *                                                                                  *
 ************************************************************************************

 *********** Symmetrised Stress Tensor ***********
 *                                               *
 *          Cartesian components (GPa)           *
 * --------------------------------------------- *
 *             x             y             z     *
 *                                               *
 *  x   -109.812293      0.000000      0.000000  *
 *  y      0.000000   -109.827966      0.000000  *
 *  z      0.000000      0.000000    -73.798699  *
 *                                               *
 *  Pressure:   97.8130                          *
 *                                               *
 *************************************************
  
 +------------+-------------+-------------+-----------------+ <-- min LBFGS
 |    Step    |   lambda    |   F.delta'  |    enthalpy     | <-- min LBFGS
 +------------+-------------+-------------+-----------------+ <-- min LBFGS
 |  previous  |    0.000000 |    0.533328 |     -663.723053 | <-- min LBFGS
 | trial step |    1.000000 |   -2.829978 |     -661.014895 | <-- min LBFGS
 +------------+-------------+-------------+-----------------+ <-- min LBFGS
  

--------------------------------------------------------------------------------
 LBFGS: improving iteration         2 with line minimization (lambda=  0.158573)
--------------------------------------------------------------------------------

                           -------------------------------
                                      Unit Cell
                           -------------------------------
        Real Lattice(A)              Reciprocal Lattice(1/A)
     3.3263134    -0.0000000     0.0000000        1.888933623   0.000000000   0.000000000
    -0.0000000     5.7790509     0.0000000        0.000000000   1.087234801   0.000000000
     0.0000000     0.0000000     5.8559330        0.000000000   0.000000000   1.072960587

                       Lattice parameters(A)       Cell Angles
                    a =      3.326313          alpha =   90.000000
                    b =      5.779051          beta  =   90.000000
                    c =      5.855933          gamma =   90.000000

                Current cell volume =           112.568219 A**3

                           -------------------------------
                                     Cell Contents
                           -------------------------------

            xxxxxxxxxxxxxxxxxxxxxxxxxxxxxxxxxxxxxxxxxxxxxxxxxxxxxxxxxxxxxxxxx
            x  Element         Atom        Fractional coordinates of atoms  x
            x                 Number           u          v          w      x
            x---------------------------------------------------------------x
            x  H                 1         0.406171   0.121888   0.014432   x
            x  H                 2         0.570169   0.203825   0.040606   x
            x  H                 3         0.565868   0.550471   0.003137   x
            x  H                 4         0.116984   0.170176   0.247534   x
            x  H                 5         0.302143   0.357771   0.241194   x
            x  H                 6         0.185777   0.474063   0.251566   x
            x  H                 7         0.185777   0.525937   0.751566   x
            x  H                 8         0.302143   0.642229   0.741194   x
            x  H                 9         0.116984   0.829824   0.747534   x
            x  H                10         0.565868   0.449529   0.503137   x
            x  H                11         0.570169   0.796175   0.540606   x
            x  H                12         0.406171   0.878112   0.514432   x
            x  H                13         0.314223   0.974063   0.251566   x
            x  H                14         0.197857   0.857771   0.241194   x
            x  H                15         0.383016   0.670176   0.247534   x
            x  H                16        -0.065868   0.050471   0.003137   x
            x  H                17        -0.070169   0.703825   0.040606   x
            x  H                18         0.093829   0.621888   0.014432   x
            x  H                19         0.685777   0.974063   0.248434   x
            x  H                20         0.802143   0.857771   0.258806   x
            x  H                21         0.616984   0.670176   0.252466   x
            x  H                22         1.065868   0.050471   0.496863   x
            x  H                23         1.070169   0.703825   0.459394   x
            x  H                24         0.906171   0.621888   0.485568   x
            x  H                25         0.814223   0.525937   0.748434   x
            x  H                26         0.697857   0.642229   0.758806   x
            x  H                27         0.883016   0.829824   0.752466   x
            x  H                28         0.434132   0.449529  -0.003137   x
            x  H                29         0.429831   0.796175   0.959394   x
            x  H                30         0.593829   0.878112   0.985568   x
            x  H                31         0.814223   0.474063   0.248434   x
            x  H                32         0.697857   0.357771   0.258806   x
            x  H                33         0.883016   0.170176   0.252466   x
            x  H                34         0.434132   0.550471   0.496863   x
            x  H                35         0.429831   0.203825   0.459394   x
            x  H                36         0.593829   0.121888   0.485568   x
            x  H                37         0.685777   0.025937   0.748434   x
            x  H                38         0.802143   0.142229   0.758806   x
            x  H                39         0.616984   0.329824   0.752466   x
            x  H                40         0.065868  -0.050471  -0.003137   x
            x  H                41         1.070169   0.296175   0.959394   x
            x  H                42         0.906171   0.378112   0.985568   x
            x  H                43         0.314223   0.025937   0.751566   x
            x  H                44         0.197857   0.142229   0.741194   x
            x  H                45         0.383016   0.329824   0.747534   x
            x  H                46         0.934132  -0.050471   0.503137   x
            x  H                47        -0.070169   0.296175   0.540606   x
            x  H                48         0.093829   0.378112   0.514432   x
            xxxxxxxxxxxxxxxxxxxxxxxxxxxxxxxxxxxxxxxxxxxxxxxxxxxxxxxxxxxxxxxxx


------------------------------------------------------------------------ <-- SCF
SCF loop      Energy                           Energy gain       Timer   <-- SCF
                                               per atom          (sec)   <-- SCF
------------------------------------------------------------------------ <-- SCF
Initial  -7.13903671E+002                                       1140.67  <-- SCF
      1  -7.28559832E+002                    3.05336696E-001    1159.39  <-- SCF
      2  -7.28639754E+002                    1.66502658E-003    1183.43  <-- SCF
      3  -7.27177796E+002                   -3.04574524E-002    1206.95  <-- SCF
      4  -7.27128678E+002                   -1.02330132E-003    1230.79  <-- SCF
      5  -7.27128903E+002                    4.69832369E-006    1254.46  <-- SCF
      6  -7.27128918E+002                    3.04727117E-007    1278.16  <-- SCF
      7  -7.27128918E+002                    1.92369297E-009    1301.69  <-- SCF
      8  -7.27128918E+002                    4.94994383E-010    1325.23  <-- SCF
      9  -7.27128918E+002                    1.63218381E-011    1342.03  <-- SCF
     10  -7.27128918E+002                    3.14191356E-013    1358.85  <-- SCF
     11  -7.27128918E+002                   -2.85994696E-013    1375.69  <-- SCF
------------------------------------------------------------------------ <-- SCF
 
Final energy =  -727.1289177686     eV
(energy not corrected for finite basis set)
 

 ******************************** Symmetrised Forces ********************************
 *                                                                                  *
 *                           Cartesian components (eV/A)                            *
 * -------------------------------------------------------------------------------- *
[...]
              H 12 -- H 27                  -0.14        2.12955
              H 1  -- H 33                  -0.14        2.12955
              H 6  -- H 47                  -0.07        2.16834
              H 11 -- H 13                  -0.07        2.16834
              H 31 -- H 41                  -0.07        2.16834
              H 35 -- H 37                  -0.07        2.16834
              H 2  -- H 43                  -0.07        2.16834
              H 19 -- H 29                  -0.07        2.16834
              H 23 -- H 25                  -0.07        2.16834
              H 7  -- H 17                  -0.07        2.16834
              H 8  -- H 30                  -0.06        2.20213
              H 14 -- H 24                  -0.06        2.20213
              H 12 -- H 26                  -0.06        2.20213
              H 18 -- H 20                  -0.06        2.20213
              H 42 -- H 44                  -0.06        2.20213
              H 5  -- H 36                  -0.06        2.20213
              H 38 -- H 48                  -0.06        2.20213
              H 1  -- H 32                  -0.06        2.20213
              H 35 -- H 38                  -0.08        2.20258
              H 2  -- H 44                  -0.08        2.20258
              H 8  -- H 17                  -0.08        2.20258
              H 20 -- H 29                  -0.08        2.20258
              H 23 -- H 26                  -0.08        2.20258
              H 11 -- H 14                  -0.08        2.20258
              H 32 -- H 41                  -0.08        2.20258
              H 5  -- H 47                  -0.08        2.20258
              H 10 -- H 23                  -0.18        2.24013
              H 3  -- H 41                  -0.18        2.24013
              H 35 -- H 46                  -0.18        2.24013
              H 11 -- H 22                  -0.18        2.24013
              H 34 -- H 47                  -0.18        2.24013
              H 17 -- H 28                  -0.18        2.24013
              H 2  -- H 40                  -0.18        2.24013
              H 16 -- H 29                  -0.18        2.24013
              H 12 -- H 24                  -0.14        2.24560
              H 18 -- H 30                  -0.14        2.24560
              H 1  -- H 42                  -0.14        2.24560
              H 36 -- H 48                  -0.14        2.24560
              H 20 -- H 31                  -0.03        2.25786
              H 6  -- H 14                  -0.03        2.25786
              H 7  -- H 44                  -0.03        2.25786
              H 25 -- H 38                  -0.03        2.25786
              H 19 -- H 32                  -0.03        2.25786
              H 5  -- H 13                  -0.03        2.25786
              H 26 -- H 37                  -0.03        2.25786
              H 8  -- H 43                  -0.03        2.25786
              H 7  -- H 11                  -0.06        2.35740
              H 43 -- H 47                  -0.06        2.35740
              H 25 -- H 29                  -0.06        2.35740
              H 19 -- H 23                  -0.06        2.35740
              H 31 -- H 35                  -0.06        2.35740
              H 37 -- H 41                  -0.06        2.35740
              H 13 -- H 17                  -0.06        2.35740
              H 2  -- H 6                   -0.06        2.35740
              H 15 -- H 40                  -0.01        2.44195
              H 9  -- H 34                  -0.01        2.44195
              H 3  -- H 27                  -0.01        2.44195
              H 21 -- H 46                  -0.01        2.44195
              H 16 -- H 39                  -0.01        2.44195
              H 22 -- H 45                  -0.01        2.44195
              H 4  -- H 28                  -0.01        2.44195
              H 10 -- H 33                  -0.01        2.44195
              H 2  -- H 35                  -0.00        2.44272
              H 17 -- H 23                  -0.00        2.44272
              H 11 -- H 29                  -0.00        2.44272
              H 41 -- H 47                  -0.00        2.44272
              H 8  -- H 42                  -0.04        2.46535
              H 26 -- H 48                  -0.04        2.46535
              H 30 -- H 44                  -0.04        2.46535
              H 12 -- H 38                  -0.04        2.46535
              H 14 -- H 36                  -0.04        2.46535
              H 5  -- H 24                  -0.04        2.46535
              H 18 -- H 32                  -0.04        2.46535
              H 1  -- H 20                  -0.04        2.46535
              H 11 -- H 35                  -0.06        2.47542
              H 2  -- H 29                  -0.06        2.47542
              H 23 -- H 47                  -0.06        2.47542
              H 17 -- H 41                  -0.06        2.47542
              H 8  -- H 40                  -0.02        2.47600
              H 14 -- H 34                  -0.02        2.47600
              H 26 -- H 46                  -0.02        2.47600
              H 3  -- H 20                  -0.02        2.47600
              H 16 -- H 32                  -0.02        2.47600
              H 28 -- H 44                  -0.02        2.47600
              H 10 -- H 38                  -0.02        2.47600
              H 5  -- H 22                  -0.02        2.47600
              H 8  -- H 41                  -0.03        2.48808
              H 26 -- H 47                  -0.03        2.48808
              H 11 -- H 38                  -0.03        2.48808
              H 29 -- H 44                  -0.03        2.48808
              H 17 -- H 32                  -0.03        2.48808
              H 5  -- H 23                  -0.03        2.48808
              H 2  -- H 20                  -0.03        2.48808
              H 14 -- H 35                  -0.03        2.48808
              H 18 -- H 45                  -0.01        2.52639
              H 15 -- H 48                  -0.01        2.52639
              H 24 -- H 39                  -0.01        2.52639
              H 1  -- H 9                   -0.01        2.52639
              H 21 -- H 42                  -0.01        2.52639
              H 4  -- H 12                  -0.01        2.52639
              H 27 -- H 36                  -0.01        2.52639
              H 30 -- H 33                  -0.01        2.52639
              H 10 -- H 12                  -0.06        2.54209
              H 28 -- H 30                  -0.06        2.54209
              H 22 -- H 24                  -0.06        2.54209
              H 16 -- H 18                  -0.06        2.54209
              H 34 -- H 36                  -0.06        2.54209
              H 1  -- H 3                   -0.06        2.54209
              H 46 -- H 48                  -0.06        2.54209
              H 40 -- H 42                  -0.06        2.54209
              H 7  -- H 12                  -0.03        2.56172
              H 25 -- H 30                  -0.03        2.56172
              H 19 -- H 24                  -0.03        2.56172
              H 43 -- H 48                  -0.03        2.56172
              H 31 -- H 36                  -0.03        2.56172
              H 37 -- H 42                  -0.03        2.56172
              H 13 -- H 18                  -0.03        2.56172
              H 1  -- H 6                   -0.03        2.56172
              H 3  -- H 14                  -0.01        2.58613
              H 22 -- H 32                  -0.01        2.58613
              H 20 -- H 34                  -0.01        2.58613
              H 8  -- H 46                  -0.01        2.58613
              H 26 -- H 40                  -0.01        2.58613
              H 5  -- H 16                  -0.01        2.58613
              H 10 -- H 44                  -0.01        2.58613
              H 28 -- H 38                  -0.01        2.58613
              H 11 -- H 30                   0.00        2.59777
              H 12 -- H 29                   0.00        2.59777
              H 42 -- H 47                   0.00        2.59777
              H 41 -- H 48                   0.00        2.59777
              H 18 -- H 23                   0.00        2.59777
              H 17 -- H 24                   0.00        2.59777
              H 2  -- H 36                   0.00        2.59777
              H 1  -- H 35                   0.00        2.59777
              H 14 -- H 31                   0.00        2.60335
              H 25 -- H 44                   0.00        2.60335
              H 5  -- H 19                   0.00        2.60335
              H 6  -- H 20                   0.00        2.60335
              H 8  -- H 37                   0.00        2.60335
              H 7  -- H 38                   0.00        2.60335
              H 13 -- H 32                   0.00        2.60335
              H 26 -- H 43                   0.00        2.60335
              H 20 -- H 35                  -0.03        2.61903
              H 23 -- H 32                  -0.03        2.61903
              H 5  -- H 17                  -0.03        2.61903
              H 8  -- H 47                  -0.03        2.61903
              H 2  -- H 14                  -0.03        2.61903
              H 26 -- H 41                  -0.03        2.61903
              H 29 -- H 38                  -0.03        2.61903
              H 11 -- H 44                  -0.03        2.61903
              H 15 -- H 46                  -0.01        2.68501
              H 3  -- H 9                   -0.01        2.68501
              H 21 -- H 40                  -0.01        2.68501
              H 27 -- H 34                  -0.01        2.68501
              H 4  -- H 10                  -0.01        2.68501
              H 22 -- H 39                  -0.01        2.68501
              H 16 -- H 45                  -0.01        2.68501
              H 28 -- H 33                  -0.01        2.68501
              H 23 -- H 43                  -0.00        2.69281
              H 17 -- H 37                  -0.00        2.69281
              H 19 -- H 47                  -0.00        2.69281
              H 11 -- H 31                  -0.00        2.69281
              H 7  -- H 35                  -0.00        2.69281
              H 2  -- H 25                  -0.00        2.69281
              H 13 -- H 41                  -0.00        2.69281
              H 6  -- H 29                  -0.00        2.69281
              H 42 -- H 48                   0.01        2.77946
              H 12 -- H 30                   0.01        2.77946
              H 18 -- H 24                   0.01        2.77946
              H 1  -- H 36                   0.01        2.77946
              H 13 -- H 24                  -0.02        2.78399
              H 6  -- H 36                  -0.02        2.78399
              H 7  -- H 30                  -0.02        2.78399
              H 18 -- H 19                  -0.02        2.78399
              H 42 -- H 43                  -0.02        2.78399
              H 12 -- H 25                  -0.02        2.78399
              H 37 -- H 48                  -0.02        2.78399
              H 1  -- H 31                  -0.02        2.78399
              H 24 -- H 45                  -0.00        2.80666
              H 15 -- H 42                  -0.00        2.80666
              H 18 -- H 39                  -0.00        2.80666
              H 9  -- H 36                  -0.00        2.80666
              H 4  -- H 30                  -0.00        2.80666
              H 21 -- H 48                  -0.00        2.80666
              H 1  -- H 27                  -0.00        2.80666
              H 12 -- H 33                  -0.00        2.80666
              H 6  -- H 11                  -0.00        2.84509
              H 13 -- H 47                  -0.00        2.84509
              H 17 -- H 43                  -0.00        2.84509
              H 29 -- H 31                  -0.00        2.84509
              H 2  -- H 7                   -0.00        2.84509
              H 19 -- H 41                  -0.00        2.84509
              H 23 -- H 37                  -0.00        2.84509
              H 25 -- H 35                  -0.00        2.84509
              H 9  -- H 28                   0.02        2.86143
              H 10 -- H 27                   0.02        2.86143
              H 16 -- H 21                   0.02        2.86143
              H 15 -- H 22                   0.02        2.86143
              H 4  -- H 34                   0.02        2.86143
              H 40 -- H 45                   0.02        2.86143
              H 3  -- H 33                   0.02        2.86143
              H 39 -- H 46                   0.02        2.86143
              H 6  -- H 22                   0.01        2.87135
              H 13 -- H 34                   0.01        2.87135
              H 16 -- H 31                   0.01        2.87135
              H 25 -- H 46                   0.01        2.87135
              H 7  -- H 40                   0.01        2.87135
              H 3  -- H 19                   0.01        2.87135
              H 28 -- H 43                   0.01        2.87135
              H 10 -- H 37                   0.01        2.87135
              H 34 -- H 46                   0.01        2.87185
              H 3  -- H 40                   0.01        2.87185
              H 10 -- H 22                   0.01        2.87185
              H 16 -- H 28                   0.01        2.87185
              H 14 -- H 28                   0.00        2.88484
              H 10 -- H 20                   0.00        2.88484
              H 5  -- H 40                   0.00        2.88484
              H 16 -- H 26                   0.00        2.88484
              H 34 -- H 44                   0.00        2.88484
              H 32 -- H 46                   0.00        2.88484
              H 3  -- H 38                   0.00        2.88484
              H 8  -- H 22                   0.00        2.88484
              H 5  -- H 45                   0.01        2.90170
              H 9  -- H 14                   0.01        2.90170
              H 32 -- H 39                   0.01        2.90170
              H 20 -- H 27                   0.01        2.90170
              H 8  -- H 15                   0.01        2.90170
              H 4  -- H 44                   0.01        2.90170
              H 33 -- H 38                   0.01        2.90170
              H 21 -- H 26                   0.01        2.90170
              H 6  -- H 12                   0.00        2.91433
              H 13 -- H 48                   0.00        2.91433
              H 18 -- H 43                   0.00        2.91433
              H 1  -- H 7                    0.00        2.91433
              H 24 -- H 37                   0.00        2.91433
              H 30 -- H 31                   0.00        2.91433
              H 25 -- H 36                   0.00        2.91433
              H 19 -- H 42                   0.00        2.91433
              H 40 -- H 46                   0.03        2.91996
              H 10 -- H 28                   0.03        2.91996
              H 3  -- H 34                   0.03        2.91996
              H 16 -- H 22                   0.03        2.91996
              H 11 -- H 48                   0.01        2.92121
              H 1  -- H 17                   0.01        2.92121
              H 29 -- H 42                   0.01        2.92121
              H 23 -- H 36                   0.01        2.92121
              H 12 -- H 47                   0.01        2.92121
              H 2  -- H 18                   0.01        2.92121
              H 24 -- H 35                   0.01        2.92121
              H 30 -- H 41                   0.01        2.92121
              H 20 -- H 32                  -0.01        2.93067
              H 5  -- H 14                  -0.01        2.93067
              H 26 -- H 38                  -0.01        2.93067
              H 8  -- H 44                  -0.01        2.93067
              H 6  -- H 13                  -0.02        2.93990
              H 7  -- H 43                  -0.02        2.93990
              H 19 -- H 31                  -0.02        2.93990
              H 25 -- H 37                  -0.02        2.93990
              H 13 -- H 43                   0.01        2.94003
              H 6  -- H 7                    0.01        2.94003
              H 25 -- H 31                   0.01        2.94003
              H 19 -- H 37                   0.01        2.94003
              H 27 -- H 42                   0.02        2.95922
              H 9  -- H 48                   0.02        2.95922
              H 21 -- H 36                   0.02        2.95922
              H 1  -- H 15                   0.02        2.95922
              H 24 -- H 33                   0.02        2.95922
              H 4  -- H 18                   0.02        2.95922
              H 30 -- H 39                   0.02        2.95922
              H 12 -- H 45                   0.02        2.95922
              H 23 -- H 45                   0.02        2.96016
              H 17 -- H 39                   0.02        2.96016
              H 15 -- H 41                   0.02        2.96016
              H 11 -- H 33                   0.02        2.96016
              H 4  -- H 29                   0.02        2.96016
              H 2  -- H 27                   0.02        2.96016
              H 21 -- H 47                   0.02        2.96016
              H 9  -- H 35                   0.02        2.96016
              H 11 -- H 39                   0.02        2.97500
              H 29 -- H 45                   0.02        2.97500
              H 4  -- H 23                   0.02        2.97500
              H 17 -- H 33                   0.02        2.97500
              H 15 -- H 35                   0.02        2.97500
              H 2  -- H 21                   0.02        2.97500
              H 9  -- H 41                   0.02        2.97500
              H 27 -- H 47                   0.02        2.97500
              H 3  -- H 10                   0.03        2.97881
              H 28 -- H 34                   0.03        2.97881
              H 16 -- H 46                   0.03        2.97881
              H 22 -- H 40                   0.03        2.97881
              H 22 -- H 31                   0.02        2.98548
              H 7  -- H 46                   0.02        2.98548
              H 25 -- H 40                   0.02        2.98548
              H 10 -- H 43                   0.02        2.98548
              H 19 -- H 34                   0.02        2.98548
              H 28 -- H 37                   0.02        2.98548
              H 6  -- H 16                   0.02        2.98548
              H 3  -- H 13                   0.02        2.98548
======================================================================


Writing analysis data to Pbcn.castep_bin

Writing model to Pbcn.check
 
 A BibTeX formatted list of references used in this run has been written to 
 Pbcn.bib
 
Initialisation time =      5.94 s
Calculation time    =   9803.06 s
Finalisation time   =     21.00 s
Total time          =   9830.00 s
Peak Memory Use     = 829884 kB
  
Overall parallel efficiency rating: Excellent (97%)                             
  
Data was distributed by:-
k-point (32-way); efficiency rating: Excellent (98%)                            
