 +-------------------------------------------------+
 |                                                 |
 |      CCC   AA    SSS  TTTTT  EEEEE  PPPP        |
 |     C     A  A  S       T    E      P   P       |
 |     C     AAAA   SS     T    EEE    PPPP        |
 |     C     A  A     S    T    E      P           |
 |      CCC  A  A  SSS     T    EEEEE  P           |
 |                                                 |
 +-------------------------------------------------+
 |                                                 |
 | Welcome to Academic Release CASTEP version 18.1 |          
 | Ab Initio Total Energy Program                  |
 |                                                 |
 | Authors:                                        |
 | M. Segall, M. Probert, C. Pickard, P. Hasnip,   |
 | S. Clark, K. Refson, J. R. Yates, M. Payne      |
 |                                                 |
 | Contributors:                                   |
 | P. Lindan, P. Haynes, J. White, V. Milman,      |
 | N. Govind, M. Gibson, P. Tulip, V. Cocula,      |
 | B. Montanari, D. Quigley, M. Glover,            |
 | L. Bernasconi, A. Perlov, M. Plummer,           |
 | E. McNellis, J. Meyer, J. Gale, D. Jochym       |
 | J. Aarons, B. Walker, R. Gillen, D. Jones       |
 | T. Green, I. J. Bush, C. J. Armstrong,          |
 | E. J. Higgins, E. L. Brown, M. S. McFly,        |
 | J. Wilkins, B-C. Shih, P. J. P. Byrne           |
 |                                                 |
 | Copyright (c) 2000 - 2017                       |
 |                                                 |
 |     Distributed under the terms of an           |
 |     Agreement between the United Kingdom        |
 |     Car-Parrinello (UKCP) Consortium,           |
 |     Daresbury Laboratory and Accelrys, Inc.     |
 |                                                 |
 | Please cite                                     |
 |                                                 |
 |     "First principles methods using CASTEP"     |
 |                                                 |
 |         Zeitschrift fuer Kristallographie       |
 |           220(5-6) pp. 567-570 (2005)           |
 |                                                 |
 | S. J. Clark, M. D. Segall, C. J. Pickard,       |
 | P. J. Hasnip, M. J. Probert, K. Refson,         |
 | M. C. Payne                                     |
 |                                                 |
 |       in all publications arising from          |
 |              your use of CASTEP                 |
 |                                                 |
 +-------------------------------------------------+


 Compiled for linux_x86_64_gfortran4.8 on Thu, 19 Jul 2018 15:42:32 +0100
 from code version 70483bd0ad64+  Sun, 10 Dec 2017 12:18:29 +0000
 Compiler: GNU Fortran 4.8.5; Optimisation: fast
 MATHLIBS: Intel MKL(2018.0.0) (LAPACK version 3.7.0)
 FFT Lib : mkl
 Fundamental constants values: CODATA 2014

 Run started: Sat, 08 Aug 2020 13:27:45 +0100
 +-------------------------------------------------+
 |                                                 |
 |  D D D D    F F F F F  P P P P     T T T T T    |
 |  D       D  F          P       P       T        |
 |  D       D  F F F F    P P P P         T        |
 |  D       D  F          P               T        |
 |  D D D D    F          P               T        |
 |                                                 |
 +-------------------------------------------------+
 |                                                 |
 | Welcome to Castep Linear Response (DFPT)        |
 |                                                 |
 | Copyright (c) 2006 - 2017                       |
 |                                                 |
 | Please cite the following publications in all   |
 | work arising from your use of CASTEP LR.        |
 |                                                 |
 | K. Refson, S. J. Clark and P. R. Tulip          |
 | Variational density functional perturbation     |
 | theory for dielectrics and lattice dynamics     |
 | Phys. Rev. B 73(15), 155114 (2006)              |
 +-------------------------------------------------+


 Atomic calculation performed for H: 1s1

 Converged in 41 iterations to an ae energy of -12.488 eV

   ============================================================                
   | Pseudopotential Report - Date of generation  8-08-2020   |                
   ------------------------------------------------------------                
   | Element: H Ionic charge:  1.00 Level of theory: PBE      |                
   | Atomic Solver: Koelling-Harmon                           |                
   |                                                          |                
   |               Reference Electronic Structure             |                
   |         Orbital         Occupation         Energy        |                
   |            1s              1.000           -0.239        |                
   |                                                          |                
   |                 Pseudopotential Definition               |                
   |        Beta     l      e      Rc     scheme   norm       |                
   |         loc     0   -0.239   0.702     qc      1         |                
   |                                                          |                
   | No charge augmentation                                   |                
   | No partial core correction                               |                
   ------------------------------------------------------------                
   | "0|0.7|2|6|8|10L(qc=10)"                                 |                
   ------------------------------------------------------------                
   |      Author: Chris J. Pickard, Cambridge University      |                
   ============================================================                

 Pseudo atomic calculation performed for H 1s1

 Converged in 24 iterations to a total energy of -12.4843 eV

 Calculation parallelised over 8 processes.
 Data is distributed by G-vector(8-way)

 ************************************ Title ************************************
 

 ***************************** General Parameters ******************************
  
 output verbosity                               : normal  (1)
 write checkpoint data to                       : Cmca-12.check
 type of calculation                            : phonon calculation
 stress calculation                             : on
 density difference calculation                 : off
 electron localisation func (ELF) calculation   : off
 Hirshfeld analysis                             : off
 unlimited duration calculation
 timing information                             : on
 memory usage estimate                          : on
 write extra output files                       : on
 write final potential to formatted file        : off
 write final density to formatted file          : off
 write structure in CELL formatted file         : on
 write BibTeX reference list                    : on
 write OTFG pseudopotential files               : on
 write electrostatic potential file             : on
 write bands file                               : on
 checkpoint writing                             : both castep_bin and check files
  
 output         length unit                     : A
 output           mass unit                     : amu
 output           time unit                     : ps
 output         charge unit                     : e
 output           spin unit                     : hbar/2
 output         energy unit                     : eV
 output          force unit                     : eV/A
 output       velocity unit                     : A/ps
 output       pressure unit                     : GPa
 output     inv_length unit                     : 1/A
 output      frequency unit                     : cm-1
 output force constant unit                     : eV/A**2
 output         volume unit                     : A**3
 output   IR intensity unit                     : (D/A)**2/amu
 output         dipole unit                     : D
 output         efield unit                     : eV/A/e
 output        entropy unit                     : J/mol/K
  
 wavefunctions paging                           : none
 random number generator seed                   : randomised (132745337)
 data distribution                              : optimal for this architecture
 optimization strategy                          : maximize speed(+++)

 *********************** Exchange-Correlation Parameters ***********************
  
 using functional                               : Perdew Burke Ernzerhof
 relativistic treatment                         : Koelling-Harmon
 DFT+D: Semi-empirical dispersion correction    : off

 ************************* Pseudopotential Parameters **************************
  
 pseudopotential representation                 : reciprocal space
 <beta|phi> representation                      : reciprocal space
 spin-orbit coupling                            : off

 **************************** Basis Set Parameters *****************************
  
 plane wave basis set cut-off                   :  1200.0000   eV
 size of standard grid                          :     2.0000
 size of   fine   gmax                          :    35.4943   1/A
 finite basis set correction                    : automatic
 number of sample energies                      :          3
           sample  spacing                      :     5.0000   eV

 **************************** Electronic Parameters ****************************
  
 number of  electrons                           :  24.00    
 net charge of system                           :  0.000    
 treating system as non-spin-polarized
 number of bands                                :         12

 ********************* Electronic Minimization Parameters **********************
  
 Method: Treating system as non-metallic,
         and number of  SD  steps               :          1
         and number of  CG  steps               :          4
  
 total energy / atom convergence tol.           : 0.1000E-10   eV
 eigen-energy convergence tolerance             : 0.2000E-10   eV
 max force / atom convergence tol.              : ignored
 convergence tolerance window                   :          3   cycles
 max. number of SCF cycles                      :        100
 periodic dipole correction                     : NONE

 ************************** Density Mixing Parameters **************************
  
 density-mixing scheme                          : Broyden
 max. length of mixing history                  :         20
 charge density mixing amplitude                : 0.8000    
 cut-off energy for mixing                      :  1200.       eV

 *********************** Population Analysis Parameters ************************
  
 Population analysis with cutoff                :  3.000       A
 Population analysis output                     : summary and pdos components

 ****************************** Phonon Parameters ******************************
  
 phonon calculation method                      : linear response
 phonon convergence tolerance                   : 0.1000E-04   eV/A**2
 max. number of phonon cycles                   :         50
 max. number of phonon CG steps                 :          0
 convergence tolerance window                   :          2   cycles
 DFPT solver method                             : AllBands (Gonze variational method)
 preconditioning scheme                         : TPA     
 fine phonon calculation method                 : interpolation
 non-periodic force constant method             : Weighted cumulant sum
 LO/TO splitting term                           : included
 acoustic phonon sum rule                       : correct D(q) in recip-space
 Born effective charges                         : calculated
 Born charge sum rule                           : explicitly enforced
 Raman intensities                              : calculated
 Raman frequency window start                   :  0.000       eV
 Raman frequency window stop                    :  1.000       eV
 Raman tensor calculated using                  : finite displacement method
 phonon k-points                                : use reduced set
 phonon DOS                                     : not calculated
 backups results every                          :      14400   seconds
 band convergence tolerance                     : 0.1000E-08   eV

 *******************************************************************************
  

                           -------------------------------
                                      Unit Cell
                           -------------------------------
        Real Lattice(A)                      Reciprocal Lattice(1/A)
     2.8876494     0.0000000     0.0000000        2.175882351  -0.000000000   0.000000000
     0.0000000     8.6629959     0.0000000       -0.000000000   0.725290116   0.000000000
     0.0000000     0.0000000     2.9186131        0.000000000   0.000000000   2.152798313

                       Lattice parameters(A)       Cell Angles
                    a =      2.887649          alpha =   90.000000
                    b =      8.662996          beta  =   90.000000
                    c =      2.918613          gamma =   90.000000

                       Current cell volume =            73.011134       A**3
                                   density =             0.331327   AMU/A**3
                                           =             0.550181     g/cm^3

                           -------------------------------
                                     Cell Contents
                           -------------------------------
                         Total number of ions in cell =   24
                      Total number of species in cell =    1
                        Max number of any one species =   24

            xxxxxxxxxxxxxxxxxxxxxxxxxxxxxxxxxxxxxxxxxxxxxxxxxxxxxxxxxxxx
            x  Element    Atom        Fractional coordinates of atoms  x
            x            Number           u          v          w      x
            x----------------------------------------------------------x
            x  H            1         0.000000   0.000000   0.125756   x 
            x  H            2         0.000000   0.166667   0.374244   x 
            x  H            3         0.000000   0.333333   0.125756   x 
            x  H            4         0.500000   0.333333   0.374244   x 
            x  H            5         0.500000   0.166667   0.125756   x 
            x  H            6         0.500000   0.000000   0.374244   x 
            x  H            7         0.500000   0.166667   0.874244   x 
            x  H            8         0.500000   0.333333   0.625756   x 
            x  H            9         0.500000   0.500000   0.874244   x 
            x  H           10         0.500000   0.666667   0.625756   x 
            x  H           11         0.500000   0.833333   0.874244   x 
            x  H           12         0.500000   1.000000   0.625756   x 
            x  H           13         0.500000   0.833333   0.125756   x 
            x  H           14         0.500000   0.666667   0.374244   x 
            x  H           15         0.500000   0.500000   0.125756   x 
            x  H           16        -0.000000   0.833333   0.374244   x 
            x  H           17        -0.000000   0.666667   0.125756   x 
            x  H           18        -0.000000   0.500000   0.374244   x 
            x  H           19         0.000000   0.666667   0.874244   x 
            x  H           20         0.000000   0.833333   0.625756   x 
            x  H           21        -0.000000   1.000000   0.874244   x 
            x  H           22         0.000000   0.166667   0.625756   x 
            x  H           23         0.000000   0.333333   0.874244   x 
            x  H           24         0.000000   0.500000   0.625756   x 
            xxxxxxxxxxxxxxxxxxxxxxxxxxxxxxxxxxxxxxxxxxxxxxxxxxxxxxxxxxxx


                         No user defined ionic velocities

                           -------------------------------
                                   Details of Species
                           -------------------------------

                               Mass of species in AMU
                                    H    1.0078250

                          Electric Quadrupole Moment (Barn)
                                    H    0.0028600 Isotope  2

                          Files used for pseudopotentials:
                                    H 0|0.7|2|6|8|10L(qc=10)

                           -------------------------------
                              k-Points For BZ Sampling
                           -------------------------------
                       MP grid size for SCF calculation is 10 10 10
                            with an offset of   0.000  0.000  0.000
                       Number of kpoints used =           125

                           -------------------------------
                               Symmetry and Constraints
                           -------------------------------

                      Cell is a supercell containing 12 primitive cells
                      Maximum deviation from symmetry = 0.173121E-13     ANG

                      Number of symmetry operations   =          16
                      Number of ionic constraints     =           3
                      Point group of crystal =     8: D2h, mmm, 2/m 2/m 2/m
                      Space group of crystal =   139: I4/mmm, -I 4 2

             Set iprint > 1 for details on symmetry rotations/translations

                         Centre of mass is constrained
             Set iprint > 1 for details of linear ionic constraints

                         Number of cell constraints= 3
                         Cell constraints are:  1 2 3 0 0 0

                         External pressure/stress (GPa)
                         50.00000   0.00000   0.00000
                                   50.00000   0.00000
                                             50.00000
  
+---------------- MEMORY AND SCRATCH DISK ESTIMATES PER PROCESS --------------+
|                                                     Memory          Disk    |
| Baseline code, static data and system overhead      383.0 MB         0.0 MB |
| BLAS internal memory storage                          0.0 MB         0.0 MB |
| Model and support data                               80.7 MB         0.0 MB |
| Electronic energy minimisation requirements          45.7 MB         0.0 MB |
| Force calculation requirements                        2.7 MB         0.0 MB |
| Stress calculation requirements                       3.2 MB         0.0 MB |
|                                               ----------------------------- |
| Approx. total storage required per process          509.4 MB         0.0 MB |
|                                                                             |
| Requirements will fluctuate during execution and may exceed these estimates |
+-----------------------------------------------------------------------------+
Calculating finite basis set correction with  3 cut-off energies.
Calculating total energy with cut-off of 1190.000 eV.
------------------------------------------------------------------------ <-- SCF
SCF loop      Energy                           Energy gain       Timer   <-- SCF
                                               per atom          (sec)   <-- SCF
------------------------------------------------------------------------ <-- SCF
Initial   6.24983677E+002                                          4.28  <-- SCF
      1  -2.96105652E+002                    3.83787221E+001      22.33  <-- SCF
      2  -3.71568973E+002                    3.14430505E+000      34.11  <-- SCF
      3  -3.73148082E+002                    6.57962073E-002      44.25  <-- SCF
      4  -3.70638180E+002                   -1.04579278E-001      60.14  <-- SCF
      5  -3.70560451E+002                   -3.23869968E-003      76.30  <-- SCF
      6  -3.70564661E+002                    1.75445813E-004      92.24  <-- SCF
      7  -3.70565170E+002                    2.12100337E-005     108.64  <-- SCF
      8  -3.70565172E+002                    7.85085026E-008     125.09  <-- SCF
      9  -3.70565173E+002                    6.48671417E-009     141.14  <-- SCF
     10  -3.70565173E+002                    1.67125633E-011     152.33  <-- SCF
     11  -3.70565173E+002                    3.00495835E-012     163.73  <-- SCF
     12  -3.70565173E+002                    6.64635561E-014     175.07  <-- SCF
------------------------------------------------------------------------ <-- SCF
 
Final energy =  -370.5651725224     eV
(energy not corrected for finite basis set)
 
Calculating total energy with cut-off of 1195.000 eV.
------------------------------------------------------------------------ <-- SCF
SCF loop      Energy                           Energy gain       Timer   <-- SCF
                                               per atom          (sec)   <-- SCF
------------------------------------------------------------------------ <-- SCF
Initial  -3.70565173E+002                                        179.94  <-- SCF
      1  -3.70566876E+002                    7.09939180E-005     194.38  <-- SCF
      2  -3.70566876E+002                    6.07074093E-011     209.25  <-- SCF
      3  -3.70566877E+002                    3.32327085E-008     225.42  <-- SCF
      4  -3.70566877E+002                    1.81067673E-009     241.97  <-- SCF
      5  -3.70566877E+002                    2.25251034E-011     253.65  <-- SCF
      6  -3.70566877E+002                    1.19432996E-012     264.98  <-- SCF
      7  -3.70566877E+002                    7.45197447E-014     276.32  <-- SCF
------------------------------------------------------------------------ <-- SCF
 
Final energy =  -370.5668772195     eV
(energy not corrected for finite basis set)
 
Calculating total energy with cut-off of 1200.000 eV.
------------------------------------------------------------------------ <-- SCF
SCF loop      Energy                           Energy gain       Timer   <-- SCF
                                               per atom          (sec)   <-- SCF
------------------------------------------------------------------------ <-- SCF
Initial  -3.70566877E+002                                        281.07  <-- SCF
      1  -3.70568569E+002                    7.04957708E-005     295.18  <-- SCF
      2  -3.70568569E+002                    5.67276521E-011     309.94  <-- SCF
      3  -3.70568570E+002                    3.38716126E-008     325.93  <-- SCF
      4  -3.70568570E+002                    1.72851367E-009     341.66  <-- SCF
      5  -3.70568570E+002                    2.15603748E-011     352.90  <-- SCF
      6  -3.70568570E+002                    1.02716405E-012     364.00  <-- SCF
      7  -3.70568570E+002                    4.83371317E-014     375.29  <-- SCF
------------------------------------------------------------------------ <-- SCF
 
Final energy =  -370.5685699743     eV
(energy not corrected for finite basis set)
 
 For future reference: finite basis dEtot/dlog(Ecut) =      -0.409985eV
 Total energy corrected for finite basis set =    -370.568583 eV

 Efield perturbation    1:  X                                           398.11s
  +---------------- MEMORY AND SCRATCH DISK ESTIMATES PER PROCESS --------------+
  |                                                     Memory          Disk    |
  | Baseline code, static data and system overhead      383.0 MB         0.0 MB |
  | BLAS internal memory storage                          0.0 MB         0.0 MB |
  | Model and support data                               81.0 MB         0.0 MB |
  | DFPT E-field response requirements                  143.7 MB         0.0 MB |
  |                                               ----------------------------- |
  | Approx. total storage required per process          607.7 MB         0.0 MB |
  |                                                                             |
  | Requirements will fluctuate during execution and may exceed these estimates |
  +-----------------------------------------------------------------------------+

 Efield perturbation    2:  Y                                           620.89s

 Efield perturbation    3:  Z                                           846.24s
 Perturbation    1 (of    9): H     1 X at q=( 0.000, 0.000, 0.000):   1100.44s
  Parallel strategy changed for perturbation using 500 k-points
  Data is distributed by G-vector(1-way) and k-point(8-way) and band(1-way)
  +---------------- MEMORY AND SCRATCH DISK ESTIMATES PER PROCESS --------------+
  |                                                     Memory          Disk    |
  | Baseline code, static data and system overhead      383.0 MB         0.0 MB |
  | BLAS internal memory storage                          0.0 MB         0.0 MB |
  | Model and support data                               81.0 MB         0.0 MB |
  | DFPT phonon calculation requirements                811.5 MB         0.0 MB |
  |                                               ----------------------------- |
  | Approx. total storage required per process         1275.5 MB         0.0 MB |
  |                                                                             |
  | Requirements will fluctuate during execution and may exceed these estimates |
  +-----------------------------------------------------------------------------+
 Perturbation    2 (of    9): H     2 X at q=( 0.000, 0.000, 0.000):   1735.62s
 Perturbation    3 (of    9): H     3 X at q=( 0.000, 0.000, 0.000):   2346.93s
 Perturbation    4 (of    9): H     1 Y at q=( 0.000, 0.000, 0.000):   2946.87s
  Parallel strategy changed for perturbation using 250 k-points
  Data is distributed by G-vector(1-way) and k-point(8-way) and band(1-way)
 Perturbation    5 (of    9): H     2 Y at q=( 0.000, 0.000, 0.000):   3312.17s
 Perturbation    6 (of    9): H     3 Y at q=( 0.000, 0.000, 0.000):   3658.17s
 Perturbation    7 (of    9): H     1 Z at q=( 0.000, 0.000, 0.000):   4002.99s
 Perturbation    8 (of    9): H     2 Z at q=( 0.000, 0.000, 0.000):   4351.33s
 Perturbation    9 (of    9): H     3 Z at q=( 0.000, 0.000, 0.000):   4699.76s

 Phonon calculation: q-point   1 (of    1) ( 0.000, 0.000, 0.000):     5050.66s
 -------------------------------------------------------------------------------
 
 ==============================================================================
 +                           Vibrational Frequencies                          +
 +                           -----------------------                          +
 +                                                                            +
 + Performing frequency calculation at  1 wavevector  (q-pt )                 +
 + ========================================================================== +
 +                                                                            +
 +============================================================================+
 +                       Raman Intensity Progress Report                      +
 +----------------------------------------------------------------------------+
 + RAMAN: Not a continuation; generating Raman intensities from beginning     +
 +----------------------------------------------------------------------------+
 + Mode     1: not Raman active; calculation not required                     +
 + Mode     2: not Raman active; calculation not required                     +
 + Mode     3: not Raman active; calculation not required                     +
 + Mode     4: not Raman active; calculation not required                     +
 + Mode     5: not Raman active; calculation not required                     +
 + Mode     6: not Raman active; calculation not required                     +
 + Mode     7: frequency out of range; calculation not required               +
 + Mode     8: frequency out of range; calculation not required               +
 + Mode     9: not Raman active; calculation not required                     +
 + Mode    10: frequency out of range; calculation not required               +
 + Mode    11: not Raman active; calculation not required                     +
 + Mode    12: not Raman active; calculation not required                     +
 + Mode    13: not Raman active; calculation not required                     +
 + Mode    14: not Raman active; calculation not required                     +
 + Mode    15: not Raman active; calculation not required                     +
 + Mode    16: not Raman active; calculation not required                     +
 + Mode    17: not Raman active; calculation not required                     +
 + Mode    18: performing Raman intensity calculation                         +

 Efield perturbation    1:  X                                          5387.45s

 Efield perturbation    2:  Y                                          5740.97s

 Efield perturbation    3:  Z                                          6181.57s

 Efield perturbation    1:  X                                          6771.62s

 Efield perturbation    2:  Y                                          7136.37s

 Efield perturbation    3:  Z                                          7575.80s
 + Mode number:  18 completed;                   time taken:  2798.20 seconds +
 + Mode    19: performing Raman intensity calculation                         +

 Efield perturbation    1:  X                                          8195.53s

 Efield perturbation    2:  Y                                          8727.17s

 Efield perturbation    3:  Z                                          9005.29s

 Efield perturbation    1:  X                                          9630.11s

 Efield perturbation    2:  Y                                         10180.14s

 Efield perturbation    3:  Z                                         10465.58s
 + Mode number:  19 completed;                   time taken:  2894.68 seconds +
 + Mode    20: not Raman active; calculation not required                     +
 + Mode    21: not Raman active; calculation not required                     +
 + Mode    22: not Raman active; calculation not required                     +
 + Mode    23: not Raman active; calculation not required                     +
 + Mode    24: not Raman active; calculation not required                     +
 + Mode    25: not Raman active; calculation not required                     +
 + Mode    26: not Raman active; calculation not required                     +
 + Mode    27: performing Raman intensity calculation                         +

 Efield perturbation    1:  X                                         10977.73s

 Efield perturbation    2:  Y                                         11208.62s

 Efield perturbation    3:  Z                                         11440.24s

 Efield perturbation    1:  X                                         11872.22s

 Efield perturbation    2:  Y                                         12105.68s

 Efield perturbation    3:  Z                                         12338.41s
 + Mode number:  27 completed;                   time taken:  1815.71 seconds +
 + Mode    28: not Raman active; calculation not required                     +
 + Mode    29: not Raman active; calculation not required                     +
 + Mode    30: performing Raman intensity calculation                         +

 Efield perturbation    1:  X                                         12901.56s

 Efield perturbation    2:  Y                                         13456.79s

 Efield perturbation    3:  Z                                         13745.28s

 Efield perturbation    1:  X                                         14342.73s

 Efield perturbation    2:  Y                                         14903.48s

 Efield perturbation    3:  Z                                         15185.57s
 + Mode number:  30 completed;                   time taken:  2898.25 seconds +
 + Mode    31: not Raman active; calculation not required                     +
 + Mode    32: performing Raman intensity calculation                         +

 Efield perturbation    1:  X                                         15801.32s

 Efield perturbation    2:  Y                                         16171.62s

 Efield perturbation    3:  Z                                         16626.48s

 Efield perturbation    1:  X                                         17205.14s

 Efield perturbation    2:  Y                                         17565.60s

 Efield perturbation    3:  Z                                         18016.56s
 + Mode number:  32 completed;                   time taken:  2828.24 seconds +
 + Mode    33: not Raman active; calculation not required                     +
 + Mode    34: not Raman active; calculation not required                     +
 + Mode    35: not Raman active; calculation not required                     +
 + Mode    36: performing Raman intensity calculation                         +

 Efield perturbation    1:  X                                         18628.42s

 Efield perturbation    2:  Y                                         19177.20s

 Efield perturbation    3:  Z                                         19450.39s

 Efield perturbation    1:  X                                         20025.67s

 Efield perturbation    2:  Y                                         20554.67s

 Efield perturbation    3:  Z                                         20814.92s
 + Mode number:  36 completed;                   time taken:  2788.60 seconds +
 + Checkpointing.....                                                         +

Writing analysis data to Cmca-12.castep_bin

Writing model to Cmca-12.check
 + Mode    37: not Raman active; calculation not required                     +
 + Mode    38: not Raman active; calculation not required                     +
 + Mode    39: not Raman active; calculation not required                     +
 + Mode    40: not Raman active; calculation not required                     +
 + Mode    41: not Raman active; calculation not required                     +
 + Mode    42: performing Raman intensity calculation                         +

 Efield perturbation    1:  X                                         21409.32s

 Efield perturbation    2:  Y                                         21764.11s

 Efield perturbation    3:  Z                                         22213.02s

 Efield perturbation    1:  X                                         22781.59s

 Efield perturbation    2:  Y                                         23140.89s

 Efield perturbation    3:  Z                                         23592.92s
 + Mode number:  42 completed;                   time taken:  2773.85 seconds +
 + Mode    43: not Raman active; calculation not required                     +
 + Mode    44: not Raman active; calculation not required                     +
 + Mode    45: performing Raman intensity calculation                         +

 Efield perturbation    1:  X                                         24081.91s

 Efield perturbation    2:  Y                                         24307.37s

 Efield perturbation    3:  Z                                         24528.43s

 Efield perturbation    1:  X                                         24942.27s

 Efield perturbation    2:  Y                                         25165.92s

 Efield perturbation    3:  Z                                         25391.00s
 + Mode number:  45 completed;                   time taken:  1743.24 seconds +
 + Mode    46: not Raman active; calculation not required                     +
 + Mode    47: not Raman active; calculation not required                     +
 + Mode    48: not Raman active; calculation not required                     +
 + Mode    49: not Raman active; calculation not required                     +
 + Mode    50: not Raman active; calculation not required                     +
 + Mode    51: not Raman active; calculation not required                     +
 + Mode    52: not Raman active; calculation not required                     +
 + Mode    53: not Raman active; calculation not required                     +
 + Mode    54: not Raman active; calculation not required                     +
 + Mode    55: performing Raman intensity calculation                         +

 Efield perturbation    1:  X                                         25822.49s

 Efield perturbation    2:  Y                                         26034.12s

 Efield perturbation    3:  Z                                         26245.13s

 Efield perturbation    1:  X                                         26651.46s

 Efield perturbation    2:  Y                                         26867.29s

 Efield perturbation    3:  Z                                         27080.67s
 + Mode number:  55 completed;                   time taken:  1696.37 seconds +
 + Mode    56: not Raman active; calculation not required                     +
 + Mode    57: performing Raman intensity calculation                         +

 Efield perturbation    1:  X                                         27625.09s

 Efield perturbation    2:  Y                                         28177.73s

 Efield perturbation    3:  Z                                         28448.81s

 Efield perturbation    1:  X                                         29031.19s

 Efield perturbation    2:  Y                                         29587.70s

 Efield perturbation    3:  Z                                         29852.90s
 + Mode number:  57 completed;                   time taken:  2824.03 seconds +
 + Mode    58: not Raman active; calculation not required                     +
 + Mode    59: not Raman active; calculation not required                     +
 + Mode    60: not Raman active; calculation not required                     +
 + Mode    61: performing Raman intensity calculation                         +

 Efield perturbation    1:  X                                         30348.87s

 Efield perturbation    2:  Y                                         30571.29s

 Efield perturbation    3:  Z                                         30786.84s

 Efield perturbation    1:  X                                         31224.50s

 Efield perturbation    2:  Y                                         31443.55s

 Efield perturbation    3:  Z                                         31664.50s
 + Mode number:  61 completed;                   time taken:  1754.19 seconds +
 + Mode    62: not Raman active; calculation not required                     +
 + Mode    63: not Raman active; calculation not required                     +
 + Mode    64: not Raman active; calculation not required                     +
 + Mode    65: performing Raman intensity calculation                         +

 Efield perturbation    1:  X                                         32103.97s

 Efield perturbation    2:  Y                                         32331.42s

 Efield perturbation    3:  Z                                         32555.59s

 Efield perturbation    1:  X                                         32977.42s

 Efield perturbation    2:  Y                                         33195.26s

 Efield perturbation    3:  Z                                         33411.55s
 + Mode number:  65 completed;                   time taken:  1747.43 seconds +
 + Mode    66: not Raman active; calculation not required                     +
 + Mode    67: not Raman active; calculation not required                     +
 + Mode    68: not Raman active; calculation not required                     +
 + Mode    69: performing Raman intensity calculation                         +

 Efield perturbation    1:  X                                         33948.20s

 Efield perturbation    2:  Y                                         34313.05s

 Efield perturbation    3:  Z                                         34779.67s

 Efield perturbation    1:  X                                         35314.27s

 Efield perturbation    2:  Y                                         35620.96s

 Efield perturbation    3:  Z                                         35986.29s
 + Mode number:  69 completed;                   time taken:  2579.25 seconds +
 + Checkpointing.....                                                         +

Writing analysis data to Cmca-12.castep_bin

Writing model to Cmca-12.check
 + Mode    70: not Raman active; calculation not required                     +
 + Mode    71: not Raman active; calculation not required                     +
 + Mode    72: performing Raman intensity calculation                         +

 Efield perturbation    1:  X                                         36503.33s

 Efield perturbation    2:  Y                                         36860.87s

 Efield perturbation    3:  Z                                         37281.71s

 Efield perturbation    1:  X                                         37771.01s

 Efield perturbation    2:  Y                                         38038.31s

 Efield perturbation    3:  Z                                         38374.22s
 + Mode number:  72 completed;                   time taken:  2364.79 seconds +
 +----------------------------------------------------------------------------+
 +   E N D    O F    R A M A N    I N T E N S I T Y    C A L C U L A T I O N  +
 +         Raman intensity calculation completed in   33512.23 seconds        +
 +============================================================================+
 + -------------------------------------------------------------------------- +
 +  q-pt=    1 (  0.000000  0.000000  0.000000)     1.0000000000              +
 + -------------------------------------------------------------------------- +
 +  Acoustic sum rule correction <   8.829868 cm-1 applied                    +
 +     N      Frequency irrep.    ir intensity active  raman activity  active + 
 +                (cm-1)         ((D/A)**2/amu)              (A**4/amu)       + 
 +                                                                            +
 +     1    -402.918180   a          0.0000000  N            0.0000000  N     + 
 +     2    -402.871680   b          0.0000000  N            0.0000000  N     + 
 +     3    -392.286954   c          0.0000000  N            0.0000000  Y     + 
 +     4    -392.284898   d          0.0000000  Y            0.0000000  N     + 
 +     5    -374.156557   b          0.0000000  N            0.0000000  N     + 
 +     6    -374.154674   e          0.0000000  N            0.0000000  N     + 
 +     7    -366.877934   f          0.0000000  N            0.0000000  Y     + 
 +     8    -366.799761   c          0.0000000  N            0.0000000  Y     + 
 +     9    -245.214375   g          0.0000000  Y            0.0000000  N     + 
 +    10    -245.156708   h          0.0000000  N            0.0000000  Y     + 
 +    11      -0.172531   d          0.0000000  N            0.0000000  N     + 
 +    12      -0.140871   i          0.0000000  N            0.0000000  N     + 
 +    13      -0.099611   g          0.0000000  N            0.0000000  N     + 
 +    14      87.655479   j          0.0000000  N            0.0000000  N     + 
 +    15      87.811313   k          0.0000000  N            0.0000000  N     + 
 +    16     341.159362   l          0.0000000  N            0.0000000  N     + 
 +    17     341.197306   a          0.0000000  N            0.0000000  N     + 
 +    18     443.791248   h          0.0000000  N         2244.1402868  Y     + 
 +    19     443.793257   m          0.0000000  N         2244.2048030  Y     + 
 +    20     471.274116   e          0.0000000  N            0.0000000  N     + 
 +    21     471.274476   b          0.0000000  N            0.0000000  N     + 
 +    22     471.947379   l          0.0000000  N            0.0000000  N     + 
 +    23     471.951255   a          0.0000000  N            0.0000000  N     + 
 +    24     528.190004   n          0.0000000  N            0.0000000  N     + 
 +    25     528.191805   o          0.0000000  N            0.0000000  N     + 
 +    26     550.603505   i          0.0000000  Y            0.0000000  N     + 
 +    27     550.625623   f          0.0000000  N            0.0000000  Y     + 
 +    28     653.420001   j          0.0000000  N            0.0000000  N     + 
 +    29     653.423892   k          0.0000000  N            0.0000000  N     + 
 +    30     670.338373   m          0.0000000  N            0.0000406  Y     + 
 +    31     670.339145   p          0.0000000  N            0.0000000  N     + 
 +    32     721.543435   h          0.0000000  N            0.0000012  Y     + 
 +    33     721.543849   g          0.0000000  Y            0.0000000  N     + 
 +    34     732.446748   k          0.0000000  N            0.0000000  N     + 
 +    35     732.492073   n          0.0000000  N            0.0000000  N     + 
 +    36     743.065137   c          0.0000000  N            0.0000001  Y     + 
 +    37     743.065932   d          0.0000000  Y            0.0000000  N     + 
 +    38     796.191151   l          0.0000000  N            0.0000000  N     + 
 +    39     796.213104   j          0.0000000  N            0.0000000  N     + 
 +    40     827.470443   l          0.0000000  N            0.0000000  N     + 
 +    41     827.479402   e          0.0000000  N            0.0000000  N     + 
 +    42     835.142646   h          0.0000000  N            0.0000000  Y     + 
 +    43     835.165103   g          0.0000000  Y            0.0000000  N     + 
 +    44     868.087456   i          0.0000000  Y            0.0000000  N     + 
 +    45     868.090738   f          0.0000000  N            0.0000000  Y     + 
 +    46     877.767820   a          0.0000000  N            0.0000000  N     + 
 +    47     877.789228   l          0.0000000  N            0.0000000  N     + 
 +    48     924.991698   g          0.0000000  Y            0.0000000  N     + 
 +    49     925.024964   p          0.0000000  N            0.0000000  N     + 
 +    50     933.275987   k          0.0000000  N            0.0000000  N     + 
 +    51     933.276194   j          0.0000000  N            0.0000000  N     + 
 +    52     975.720337   i          0.0000000  Y            0.0000000  N     + 
 +    53     993.932988   o          0.0000000  N            0.0000000  N     + 
 +    54     993.933346   n          0.0000000  N            0.0000000  N     + 
 +    55    1079.298816   f          0.0000000  N            0.0000026  Y     + 
 +    56    1079.316440   i          0.0000000  Y            0.0000000  N     + 
 +    57    1143.968887   m          0.0000000  N            0.0000000  Y     + 
 +    58    1143.969411   p          0.0000000  N            0.0000000  N     + 
 +    59    1228.155404   j          0.0000000  N            0.0000000  N     + 
 +    60    1228.290843   o          0.0000000  N            0.0000000  N     + 
 +    61    4296.276241   f          0.0000000  N        43130.2819931  Y     + 
 +    62    4341.767203   j          0.0000000  N            0.0000000  N     + 
 +    63    4341.767917   k          0.0000000  N            0.0000000  N     + 
 +    64    4422.230859   i          0.0000000  Y            0.0000000  N     + 
 +    65    4422.231959   f          0.0000000  N            0.0000684  Y     + 
 +    66    4458.641624   k          0.0000000  N            0.0000000  N     + 
 +    67    4458.648149   a          0.0000000  N            0.0000000  N     + 
 +    68    4493.662271   g          0.0000000  Y            0.0000000  N     + 
 +    69    4493.663008   h          0.0000000  N            0.0000000  Y     + 
 +    70    4571.301923   l          0.0000000  N            0.0000000  N     + 
 +    71    4571.302813   a          0.0000000  N            0.0000000  N     + 
 +    72    4613.710346   h          0.0000000  N            0.0000000  Y     + 
 + .......................................................................... +
 +        Character table from group theory analysis of eigenvectors          +
 +                           Point Group =   8, D2h                           +
 + .......................................................................... +
 +  Rep  Mul |    E   I   2   m   2   m   2   m                               +
 +           | --------------------------------                               +
 + a B2g   6 |    1   1  -1  -1   1   1  -1  -1                               +
 + b B1g   3 |    1   1   1   1  -1  -1  -1  -1                               +
 + c B1g   3 |    1   1   1   1  -1  -1  -1  -1                               +
 + d B2u   3 |    1  -1  -1   1   1  -1  -1   1                               +
 + e B2u   3 |    1  -1  -1   1   1  -1  -1   1                               +
 + f Ag    6 |    1   1   1   1   1   1   1   1                               +
 + g B1u   6 |    1  -1   1  -1  -1   1  -1   1                               +
 + h B2g   6 |    1   1  -1  -1   1   1  -1  -1                               +
 + i B3u   6 |    1  -1  -1   1  -1   1   1  -1                               +
 + j B3u   6 |    1  -1  -1   1  -1   1   1  -1                               +
 + k Ag    6 |    1   1   1   1   1   1   1   1                               +
 + l B1u   6 |    1  -1   1  -1  -1   1  -1   1                               +
 + m B3g   3 |    1   1  -1  -1  -1  -1   1   1                               +
 + n B3g   3 |    1   1  -1  -1  -1  -1   1   1                               +
 + o Au    3 |    1  -1   1  -1   1  -1   1  -1                               +
 + p Au    3 |    1  -1   1  -1   1  -1   1  -1                               +
 ==============================================================================
 ===================================================
                   Born Effective Charges
                   ----------------------
   H       1        -0.00000     0.00000     0.00000
                     0.00000     0.00000     0.00000
                     0.00000     0.00000    -0.00000
   H       2         0.00000     0.00000     0.00000
                     0.00000    -0.00000     0.00000
                     0.00000     0.00000     0.00000
   H       3         0.00000     0.00000     0.00000
                     0.00000    -0.00000     0.00000
                     0.00000     0.00000     0.00000
   H       4         0.00000     0.00000     0.00000
                     0.00000    -0.00000    -0.00000
                     0.00000    -0.00000     0.00000
   H       5         0.00000     0.00000     0.00000
                     0.00000    -0.00000    -0.00000
                     0.00000    -0.00000     0.00000
   H       6        -0.00000     0.00000     0.00000
                     0.00000     0.00000    -0.00000
                     0.00000    -0.00000    -0.00000
   H       7         0.00000     0.00000     0.00000
                     0.00000    -0.00000     0.00000
                     0.00000     0.00000     0.00000
   H       8         0.00000     0.00000     0.00000
                     0.00000    -0.00000     0.00000
                     0.00000     0.00000     0.00000
   H       9        -0.00000     0.00000     0.00000
                     0.00000     0.00000     0.00000
                     0.00000     0.00000    -0.00000
   H      10         0.00000     0.00000     0.00000
                     0.00000    -0.00000    -0.00000
                     0.00000    -0.00000     0.00000
   H      11         0.00000     0.00000     0.00000
                     0.00000    -0.00000    -0.00000
                     0.00000    -0.00000     0.00000
   H      12        -0.00000     0.00000     0.00000
                     0.00000     0.00000    -0.00000
                     0.00000    -0.00000    -0.00000
   H      13         0.00000     0.00000     0.00000
                     0.00000    -0.00000     0.00000
                     0.00000     0.00000     0.00000
   H      14         0.00000     0.00000     0.00000
                     0.00000    -0.00000     0.00000
                     0.00000     0.00000     0.00000
   H      15        -0.00000     0.00000     0.00000
                     0.00000     0.00000     0.00000
                     0.00000     0.00000    -0.00000
   H      16         0.00000     0.00000     0.00000
                     0.00000    -0.00000    -0.00000
                     0.00000    -0.00000     0.00000
   H      17         0.00000     0.00000     0.00000
                     0.00000    -0.00000    -0.00000
                     0.00000    -0.00000     0.00000
   H      18        -0.00000     0.00000     0.00000
                     0.00000     0.00000    -0.00000
                     0.00000    -0.00000    -0.00000
   H      19         0.00000     0.00000     0.00000
                     0.00000    -0.00000     0.00000
                     0.00000     0.00000     0.00000
   H      20         0.00000     0.00000     0.00000
                     0.00000    -0.00000     0.00000
                     0.00000     0.00000     0.00000
   H      21        -0.00000     0.00000     0.00000
                     0.00000     0.00000     0.00000
                     0.00000     0.00000    -0.00000
   H      22         0.00000     0.00000     0.00000
                     0.00000    -0.00000    -0.00000
                     0.00000    -0.00000     0.00000
   H      23         0.00000     0.00000     0.00000
                     0.00000    -0.00000    -0.00000
                     0.00000    -0.00000     0.00000
   H      24        -0.00000     0.00000     0.00000
                     0.00000     0.00000    -0.00000
                     0.00000    -0.00000    -0.00000
 ===================================================
  
 ==============================================================================
 +                      Raman Susceptibility Tensors ((A/amu)*0.5)            +
 +----------------------------------------------------------------------------+
 + Mode number:   1 Raman tensor       Depolarisation Ratio                   +
 +     0.0000    0.0000    0.0000      0.000000                               +
 +     0.0000    0.0000    0.0000                                             +
 +     0.0000    0.0000    0.0000                                             +
 +                                                                            +
 + Mode number:   2 Raman tensor       Depolarisation Ratio                   +
 +     0.0000    0.0000    0.0000      0.000000                               +
 +     0.0000    0.0000    0.0000                                             +
 +     0.0000    0.0000    0.0000                                             +
 +                                                                            +
 + Mode number:   3 Raman tensor       Depolarisation Ratio                   +
 +     0.0000    0.0000    0.0000      0.000000                               +
 +     0.0000    0.0000    0.0000                                             +
 +     0.0000    0.0000    0.0000                                             +
 +                                                                            +
 + Mode number:   4 Raman tensor       Depolarisation Ratio                   +
 +     0.0000    0.0000    0.0000      0.000000                               +
 +     0.0000    0.0000    0.0000                                             +
 +     0.0000    0.0000    0.0000                                             +
 +                                                                            +
 + Mode number:   5 Raman tensor       Depolarisation Ratio                   +
 +     0.0000    0.0000    0.0000      0.000000                               +
 +     0.0000    0.0000    0.0000                                             +
 +     0.0000    0.0000    0.0000                                             +
 +                                                                            +
 + Mode number:   6 Raman tensor       Depolarisation Ratio                   +
 +     0.0000    0.0000    0.0000      0.000000                               +
 +     0.0000    0.0000    0.0000                                             +
 +     0.0000    0.0000    0.0000                                             +
 +                                                                            +
 + Mode number:   7 is outside of the requested Raman frequency range         +
 +                                                                            +
 + Mode number:   8 is outside of the requested Raman frequency range         +
 +                                                                            +
 + Mode number:   9 Raman tensor       Depolarisation Ratio                   +
 +     0.0000    0.0000    0.0000      0.000000                               +
 +     0.0000    0.0000    0.0000                                             +
 +     0.0000    0.0000    0.0000                                             +
 +                                                                            +
 + Mode number:  10 is outside of the requested Raman frequency range         +
 +                                                                            +
 + Mode number:  11 Raman tensor       Depolarisation Ratio                   +
 +     0.0000    0.0000    0.0000      0.000000                               +
 +     0.0000    0.0000    0.0000                                             +
 +     0.0000    0.0000    0.0000                                             +
 +                                                                            +
 + Mode number:  12 Raman tensor       Depolarisation Ratio                   +
 +     0.0000    0.0000    0.0000      0.000000                               +
 +     0.0000    0.0000    0.0000                                             +
 +     0.0000    0.0000    0.0000                                             +
 +                                                                            +
 + Mode number:  13 Raman tensor       Depolarisation Ratio                   +
 +     0.0000    0.0000    0.0000      0.000000                               +
 +     0.0000    0.0000    0.0000                                             +
 +     0.0000    0.0000    0.0000                                             +
 +                                                                            +
 + Mode number:  14 Raman tensor       Depolarisation Ratio                   +
 +     0.0000    0.0000    0.0000      0.000000                               +
 +     0.0000    0.0000    0.0000                                             +
 +     0.0000    0.0000    0.0000                                             +
 +                                                                            +
 + Mode number:  15 Raman tensor       Depolarisation Ratio                   +
 +     0.0000    0.0000    0.0000      0.000000                               +
 +     0.0000    0.0000    0.0000                                             +
 +     0.0000    0.0000    0.0000                                             +
 +                                                                            +
 + Mode number:  16 Raman tensor       Depolarisation Ratio                   +
 +     0.0000    0.0000    0.0000      0.000000                               +
 +     0.0000    0.0000    0.0000                                             +
 +     0.0000    0.0000    0.0000                                             +
 +                                                                            +
 + Mode number:  17 Raman tensor       Depolarisation Ratio                   +
 +     0.0000    0.0000    0.0000      0.000000                               +
 +     0.0000    0.0000    0.0000                                             +
 +     0.0000    0.0000    0.0000                                             +
 +                                                                            +
 + Mode number:  18 Raman tensor       Depolarisation Ratio                   +
 +     0.0000    0.0000    0.0000      0.750000                               +
 +     0.0000    0.0000   -1.2098                                             +
 +     0.0000   -1.2098   -0.0000                                             +
 +                                                                            +
 + Mode number:  19 Raman tensor       Depolarisation Ratio                   +
 +     0.0000    0.0000    1.2098      0.750000                               +
 +     0.0000    0.0000    0.0000                                             +
 +     1.2098    0.0000   -0.0000                                             +
 +                                                                            +
 + Mode number:  20 Raman tensor       Depolarisation Ratio                   +
 +     0.0000    0.0000    0.0000      0.000000                               +
 +     0.0000    0.0000    0.0000                                             +
 +     0.0000    0.0000    0.0000                                             +
 +                                                                            +
 + Mode number:  21 Raman tensor       Depolarisation Ratio                   +
 +     0.0000    0.0000    0.0000      0.000000                               +
 +     0.0000    0.0000    0.0000                                             +
 +     0.0000    0.0000    0.0000                                             +
 +                                                                            +
 + Mode number:  22 Raman tensor       Depolarisation Ratio                   +
 +     0.0000    0.0000    0.0000      0.000000                               +
 +     0.0000    0.0000    0.0000                                             +
 +     0.0000    0.0000    0.0000                                             +
 +                                                                            +
 + Mode number:  23 Raman tensor       Depolarisation Ratio                   +
 +     0.0000    0.0000    0.0000      0.000000                               +
 +     0.0000    0.0000    0.0000                                             +
 +     0.0000    0.0000    0.0000                                             +
 +                                                                            +
 + Mode number:  24 Raman tensor       Depolarisation Ratio                   +
 +     0.0000    0.0000    0.0000      0.000000                               +
 +     0.0000    0.0000    0.0000                                             +
 +     0.0000    0.0000    0.0000                                             +
 +                                                                            +
 + Mode number:  25 Raman tensor       Depolarisation Ratio                   +
 +     0.0000    0.0000    0.0000      0.000000                               +
 +     0.0000    0.0000    0.0000                                             +
 +     0.0000    0.0000    0.0000                                             +
 +                                                                            +
 + Mode number:  26 Raman tensor       Depolarisation Ratio                   +
 +     0.0000    0.0000    0.0000      0.000000                               +
 +     0.0000    0.0000    0.0000                                             +
 +     0.0000    0.0000    0.0000                                             +
 +                                                                            +
 + Mode number:  27 Raman tensor       Depolarisation Ratio                   +
 +     0.0000    0.0000    0.0000      0.000000                               +
 +     0.0000    0.0000    0.0000                                             +
 +     0.0000    0.0000    0.0000                                             +
 +                                                                            +
 + Mode number:  28 Raman tensor       Depolarisation Ratio                   +
 +     0.0000    0.0000    0.0000      0.000000                               +
 +     0.0000    0.0000    0.0000                                             +
 +     0.0000    0.0000    0.0000                                             +
 +                                                                            +
 + Mode number:  29 Raman tensor       Depolarisation Ratio                   +
 +     0.0000    0.0000    0.0000      0.000000                               +
 +     0.0000    0.0000    0.0000                                             +
 +     0.0000    0.0000    0.0000                                             +
 +                                                                            +
 + Mode number:  30 Raman tensor       Depolarisation Ratio                   +
 +     0.0000    0.0000    0.0002      0.749998                               +
 +     0.0000    0.0000    0.0000                                             +
 +     0.0002    0.0000   -0.0000                                             +
 +                                                                            +
 + Mode number:  31 Raman tensor       Depolarisation Ratio                   +
 +     0.0000    0.0000    0.0000      0.000000                               +
 +     0.0000    0.0000    0.0000                                             +
 +     0.0000    0.0000    0.0000                                             +
 +                                                                            +
 + Mode number:  32 Raman tensor       Depolarisation Ratio                   +
 +     0.0000    0.0000    0.0000      0.749999                               +
 +     0.0000    0.0000   -0.0000                                             +
 +     0.0000   -0.0000   -0.0000                                             +
 +                                                                            +
 + Mode number:  33 Raman tensor       Depolarisation Ratio                   +
 +     0.0000    0.0000    0.0000      0.000000                               +
 +     0.0000    0.0000    0.0000                                             +
 +     0.0000    0.0000    0.0000                                             +
 +                                                                            +
 + Mode number:  34 Raman tensor       Depolarisation Ratio                   +
 +     0.0000    0.0000    0.0000      0.000000                               +
 +     0.0000    0.0000    0.0000                                             +
 +     0.0000    0.0000    0.0000                                             +
 +                                                                            +
 + Mode number:  35 Raman tensor       Depolarisation Ratio                   +
 +     0.0000    0.0000    0.0000      0.000000                               +
 +     0.0000    0.0000    0.0000                                             +
 +     0.0000    0.0000    0.0000                                             +
 +                                                                            +
 + Mode number:  36 Raman tensor       Depolarisation Ratio                   +
 +     0.0000    0.0000    0.0000      0.749974                               +
 +     0.0000    0.0000    0.0000                                             +
 +     0.0000    0.0000   -0.0000                                             +
 +                                                                            +
 + Mode number:  37 Raman tensor       Depolarisation Ratio                   +
 +     0.0000    0.0000    0.0000      0.000000                               +
 +     0.0000    0.0000    0.0000                                             +
 +     0.0000    0.0000    0.0000                                             +
 +                                                                            +
 + Mode number:  38 Raman tensor       Depolarisation Ratio                   +
 +     0.0000    0.0000    0.0000      0.000000                               +
 +     0.0000    0.0000    0.0000                                             +
 +     0.0000    0.0000    0.0000                                             +
 +                                                                            +
 + Mode number:  39 Raman tensor       Depolarisation Ratio                   +
 +     0.0000    0.0000    0.0000      0.000000                               +
 +     0.0000    0.0000    0.0000                                             +
 +     0.0000    0.0000    0.0000                                             +
 +                                                                            +
 + Mode number:  40 Raman tensor       Depolarisation Ratio                   +
 +     0.0000    0.0000    0.0000      0.000000                               +
 +     0.0000    0.0000    0.0000                                             +
 +     0.0000    0.0000    0.0000                                             +
 +                                                                            +
 + Mode number:  41 Raman tensor       Depolarisation Ratio                   +
 +     0.0000    0.0000    0.0000      0.000000                               +
 +     0.0000    0.0000    0.0000                                             +
 +     0.0000    0.0000    0.0000                                             +
 +                                                                            +
 + Mode number:  42 Raman tensor       Depolarisation Ratio                   +
 +     0.0000    0.0000    0.0000      0.000000                               +
 +     0.0000    0.0000    0.0000                                             +
 +     0.0000    0.0000    0.0000                                             +
 +                                                                            +
 + Mode number:  43 Raman tensor       Depolarisation Ratio                   +
 +     0.0000    0.0000    0.0000      0.000000                               +
 +     0.0000    0.0000    0.0000                                             +
 +     0.0000    0.0000    0.0000                                             +
 +                                                                            +
 + Mode number:  44 Raman tensor       Depolarisation Ratio                   +
 +     0.0000    0.0000    0.0000      0.000000                               +
 +     0.0000    0.0000    0.0000                                             +
 +     0.0000    0.0000    0.0000                                             +
 +                                                                            +
 + Mode number:  45 Raman tensor       Depolarisation Ratio                   +
 +     0.0000    0.0000    0.0000      0.000000                               +
 +     0.0000    0.0000    0.0000                                             +
 +     0.0000    0.0000    0.0000                                             +
 +                                                                            +
 + Mode number:  46 Raman tensor       Depolarisation Ratio                   +
 +     0.0000    0.0000    0.0000      0.000000                               +
 +     0.0000    0.0000    0.0000                                             +
 +     0.0000    0.0000    0.0000                                             +
 +                                                                            +
 + Mode number:  47 Raman tensor       Depolarisation Ratio                   +
 +     0.0000    0.0000    0.0000      0.000000                               +
 +     0.0000    0.0000    0.0000                                             +
 +     0.0000    0.0000    0.0000                                             +
 +                                                                            +
 + Mode number:  48 Raman tensor       Depolarisation Ratio                   +
 +     0.0000    0.0000    0.0000      0.000000                               +
 +     0.0000    0.0000    0.0000                                             +
 +     0.0000    0.0000    0.0000                                             +
 +                                                                            +
 + Mode number:  49 Raman tensor       Depolarisation Ratio                   +
 +     0.0000    0.0000    0.0000      0.000000                               +
 +     0.0000    0.0000    0.0000                                             +
 +     0.0000    0.0000    0.0000                                             +
 +                                                                            +
 + Mode number:  50 Raman tensor       Depolarisation Ratio                   +
 +     0.0000    0.0000    0.0000      0.000000                               +
 +     0.0000    0.0000    0.0000                                             +
 +     0.0000    0.0000    0.0000                                             +
 +                                                                            +
 + Mode number:  51 Raman tensor       Depolarisation Ratio                   +
 +     0.0000    0.0000    0.0000      0.000000                               +
 +     0.0000    0.0000    0.0000                                             +
 +     0.0000    0.0000    0.0000                                             +
 +                                                                            +
 + Mode number:  52 Raman tensor       Depolarisation Ratio                   +
 +     0.0000    0.0000    0.0000      0.000000                               +
 +     0.0000    0.0000    0.0000                                             +
 +     0.0000    0.0000    0.0000                                             +
 +                                                                            +
 + Mode number:  53 Raman tensor       Depolarisation Ratio                   +
 +     0.0000    0.0000    0.0000      0.000000                               +
 +     0.0000    0.0000    0.0000                                             +
 +     0.0000    0.0000    0.0000                                             +
 +                                                                            +
 + Mode number:  54 Raman tensor       Depolarisation Ratio                   +
 +     0.0000    0.0000    0.0000      0.000000                               +
 +     0.0000    0.0000    0.0000                                             +
 +     0.0000    0.0000    0.0000                                             +
 +                                                                            +
 + Mode number:  55 Raman tensor       Depolarisation Ratio                   +
 +     0.0000    0.0000    0.0000      0.362605                               +
 +     0.0000   -0.0000    0.0000                                             +
 +     0.0000    0.0000    0.0001                                             +
 +                                                                            +
 + Mode number:  56 Raman tensor       Depolarisation Ratio                   +
 +     0.0000    0.0000    0.0000      0.000000                               +
 +     0.0000    0.0000    0.0000                                             +
 +     0.0000    0.0000    0.0000                                             +
 +                                                                            +
 + Mode number:  57 Raman tensor       Depolarisation Ratio                   +
 +     0.0000    0.0000    0.0000      0.000000                               +
 +     0.0000    0.0000    0.0000                                             +
 +     0.0000    0.0000    0.0000                                             +
 +                                                                            +
 + Mode number:  58 Raman tensor       Depolarisation Ratio                   +
 +     0.0000    0.0000    0.0000      0.000000                               +
 +     0.0000    0.0000    0.0000                                             +
 +     0.0000    0.0000    0.0000                                             +
 +                                                                            +
 + Mode number:  59 Raman tensor       Depolarisation Ratio                   +
 +     0.0000    0.0000    0.0000      0.000000                               +
 +     0.0000    0.0000    0.0000                                             +
 +     0.0000    0.0000    0.0000                                             +
 +                                                                            +
 + Mode number:  60 Raman tensor       Depolarisation Ratio                   +
 +     0.0000    0.0000    0.0000      0.000000                               +
 +     0.0000    0.0000    0.0000                                             +
 +     0.0000    0.0000    0.0000                                             +
 +                                                                            +
 + Mode number:  61 Raman tensor       Depolarisation Ratio                   +
 +     1.9472    0.0000    0.0000      0.086711                               +
 +     0.0000    1.9473    0.0000                                             +
 +     0.0000    0.0000    5.9111                                             +
 +                                                                            +
 + Mode number:  62 Raman tensor       Depolarisation Ratio                   +
 +     0.0000    0.0000    0.0000      0.000000                               +
 +     0.0000    0.0000    0.0000                                             +
 +     0.0000    0.0000    0.0000                                             +
 +                                                                            +
 + Mode number:  63 Raman tensor       Depolarisation Ratio                   +
 +     0.0000    0.0000    0.0000      0.000000                               +
 +     0.0000    0.0000    0.0000                                             +
 +     0.0000    0.0000    0.0000                                             +
 +                                                                            +
 + Mode number:  64 Raman tensor       Depolarisation Ratio                   +
 +     0.0000    0.0000    0.0000      0.000000                               +
 +     0.0000    0.0000    0.0000                                             +
 +     0.0000    0.0000    0.0000                                             +
 +                                                                            +
 + Mode number:  65 Raman tensor       Depolarisation Ratio                   +
 +     0.0001    0.0000    0.0000      0.155219                               +
 +     0.0000    0.0000    0.0000                                             +
 +     0.0000    0.0000    0.0002                                             +
 +                                                                            +
 + Mode number:  66 Raman tensor       Depolarisation Ratio                   +
 +     0.0000    0.0000    0.0000      0.000000                               +
 +     0.0000    0.0000    0.0000                                             +
 +     0.0000    0.0000    0.0000                                             +
 +                                                                            +
 + Mode number:  67 Raman tensor       Depolarisation Ratio                   +
 +     0.0000    0.0000    0.0000      0.000000                               +
 +     0.0000    0.0000    0.0000                                             +
 +     0.0000    0.0000    0.0000                                             +
 +                                                                            +
 + Mode number:  68 Raman tensor       Depolarisation Ratio                   +
 +     0.0000    0.0000    0.0000      0.000000                               +
 +     0.0000    0.0000    0.0000                                             +
 +     0.0000    0.0000    0.0000                                             +
 +                                                                            +
 + Mode number:  69 Raman tensor       Depolarisation Ratio                   +
 +     0.0000    0.0000    0.0000      0.000000                               +
 +     0.0000    0.0000    0.0000                                             +
 +     0.0000    0.0000    0.0000                                             +
 +                                                                            +
 + Mode number:  70 Raman tensor       Depolarisation Ratio                   +
 +     0.0000    0.0000    0.0000      0.000000                               +
 +     0.0000    0.0000    0.0000                                             +
 +     0.0000    0.0000    0.0000                                             +
 +                                                                            +
 + Mode number:  71 Raman tensor       Depolarisation Ratio                   +
 +     0.0000    0.0000    0.0000      0.000000                               +
 +     0.0000    0.0000    0.0000                                             +
 +     0.0000    0.0000    0.0000                                             +
 +                                                                            +
 + Mode number:  72 Raman tensor       Depolarisation Ratio                   +
 +     0.0000    0.0000    0.0000      0.719467                               +
 +     0.0000    0.0000   -0.0000                                             +
 +     0.0000   -0.0000    0.0000                                             +
 +                                                                            +
 +----------------------------------------------------------------------------+
  

 ******************** Symmetrised Forces ********************
 *                                                          *
 *               Cartesian components (eV/A)                *
 * -------------------------------------------------------- *
 *                         x            y            z      *
 *                                                          *
 * H               1      0.00000      0.00000      0.00000 *
 * H               2      0.00000      0.00000      0.00000 *
 * H               3      0.00000     -0.00000     -0.00000 *
 * H               4     -0.00000     -0.00000      0.00000 *
 * H               5      0.00000      0.00000     -0.00000 *
 * H               6      0.00000      0.00000     -0.00000 *
 * H               7      0.00000      0.00000      0.00000 *
 * H               8      0.00000     -0.00000     -0.00000 *
 * H               9      0.00000     -0.00000     -0.00000 *
 * H              10      0.00000      0.00000     -0.00000 *
 * H              11      0.00000     -0.00000      0.00000 *
 * H              12      0.00000     -0.00000      0.00000 *
 * H              13      0.00000     -0.00000     -0.00000 *
 * H              14      0.00000      0.00000      0.00000 *
 * H              15      0.00000      0.00000      0.00000 *
 * H              16     -0.00000     -0.00000      0.00000 *
 * H              17      0.00000      0.00000     -0.00000 *
 * H              18      0.00000      0.00000     -0.00000 *
 * H              19      0.00000      0.00000      0.00000 *
 * H              20      0.00000     -0.00000     -0.00000 *
 * H              21      0.00000     -0.00000     -0.00000 *
 * H              22      0.00000      0.00000     -0.00000 *
 * H              23      0.00000     -0.00000      0.00000 *
 * H              24      0.00000     -0.00000      0.00000 *
 *                                                          *
 ************************************************************

 *********** Symmetrised Stress Tensor ***********
 *                                               *
 *          Cartesian components (GPa)           *
 * --------------------------------------------- *
 *             x             y             z     *
 *                                               *
 *  x    -50.003182      0.000000      0.000000  *
 *  y      0.000000    -50.003184      0.000000  *
 *  z      0.000000      0.000000    -50.003191  *
 *                                               *
 *  Pressure:   50.0032                          *
 *                                               *
 *************************************************

 Pseudo atomic calculation performed for H 1s1

 Converged in 24 iterations to a total energy of -12.4843 eV

Charge spilling parameter for spin component 1 = 0.65%

            Orbital Populations       
     Ion    Atom   Orbital             Charge
  -------------------------------------------
      H     1      S                    1.000
      H     2      S                    1.000
      H     3      S                    1.000
      H     4      S                    1.000
      H     5      S                    1.000
      H     6      S                    1.000
      H     7      S                    1.000
      H     8      S                    1.000
      H     9      S                    1.000
      H    10      S                    1.000
      H    11      S                    1.000
      H    12      S                    1.000
      H    13      S                    1.000
      H    14      S                    1.000
      H    15      S                    1.000
      H    16      S                    1.000
      H    17      S                    1.000
      H    18      S                    1.000
      H    19      S                    1.000
      H    20      S                    1.000
      H    21      S                    1.000
      H    22      S                    1.000
      H    23      S                    1.000
      H    24      S                    1.000
  -------------------------------------------
                           Total:      24.000
  -------------------------------------------

     Atomic Populations (Mulliken)
     -----------------------------
Species          Ion     s      p      d      f     Total  Charge (e)
=====================================================================
  H               1     1.00   0.00   0.00   0.00   1.00    -0.00
  H               2     1.00   0.00   0.00   0.00   1.00     0.00
  H               3     1.00   0.00   0.00   0.00   1.00     0.00
  H               4     1.00   0.00   0.00   0.00   1.00     0.00
  H               5     1.00   0.00   0.00   0.00   1.00     0.00
  H               6     1.00   0.00   0.00   0.00   1.00    -0.00
  H               7     1.00   0.00   0.00   0.00   1.00     0.00
  H               8     1.00   0.00   0.00   0.00   1.00     0.00
  H               9     1.00   0.00   0.00   0.00   1.00    -0.00
  H              10     1.00   0.00   0.00   0.00   1.00     0.00
  H              11     1.00   0.00   0.00   0.00   1.00     0.00
  H              12     1.00   0.00   0.00   0.00   1.00    -0.00
  H              13     1.00   0.00   0.00   0.00   1.00     0.00
  H              14     1.00   0.00   0.00   0.00   1.00     0.00
  H              15     1.00   0.00   0.00   0.00   1.00    -0.00
  H              16     1.00   0.00   0.00   0.00   1.00     0.00
  H              17     1.00   0.00   0.00   0.00   1.00     0.00
  H              18     1.00   0.00   0.00   0.00   1.00    -0.00
  H              19     1.00   0.00   0.00   0.00   1.00     0.00
  H              20     1.00   0.00   0.00   0.00   1.00     0.00
  H              21     1.00   0.00   0.00   0.00   1.00    -0.00
  H              22     1.00   0.00   0.00   0.00   1.00     0.00
  H              23     1.00   0.00   0.00   0.00   1.00     0.00
  H              24     1.00   0.00   0.00   0.00   1.00    -0.00
=====================================================================

                 Bond                   Population      Length (A)
======================================================================
              H 18 -- H 24                   1.41        0.73407
              H 6  -- H 12                   1.41        0.73407
              H 9  -- H 15                   1.41        0.73407
              H 1  -- H 21                   1.41        0.73407
              H 16 -- H 20                   1.41        0.73407
              H 4  -- H 8                    1.41        0.73407
              H 17 -- H 19                   1.41        0.73407
              H 11 -- H 13                   1.41        0.73407
              H 10 -- H 14                   1.41        0.73407
              H 5  -- H 7                    1.41        0.73407
              H 3  -- H 23                   1.41        0.73407
              H 2  -- H 22                   1.41        0.73407
              H 10 -- H 19                  -0.21        1.61574
              H 7  -- H 22                  -0.21        1.61574
              H 13 -- H 16                  -0.21        1.61574
              H 3  -- H 4                   -0.21        1.61574
              H 8  -- H 23                  -0.21        1.61574
              H 14 -- H 17                  -0.21        1.61574
              H 11 -- H 20                  -0.21        1.61574
              H 2  -- H 5                   -0.21        1.61574
              H 15 -- H 18                  -0.21        1.61574
              H 12 -- H 21                  -0.21        1.61574
              H 9  -- H 24                  -0.21        1.61574
              H 1  -- H 6                   -0.21        1.61574
              H 17 -- H 18                  -0.09        1.61574
              H 14 -- H 15                  -0.09        1.61574
              H 5  -- H 6                   -0.09        1.61574
              H 11 -- H 12                  -0.09        1.61574
              H 20 -- H 21                  -0.09        1.61574
              H 1  -- H 2                   -0.09        1.61574
              H 23 -- H 24                  -0.09        1.61574
              H 8  -- H 9                   -0.09        1.61574
              H 3  -- H 18                  -0.09        1.61574
              H 4  -- H 15                  -0.09        1.61574
              H 21 -- H 22                  -0.09        1.61574
              H 19 -- H 24                  -0.09        1.61574
              H 9  -- H 10                  -0.09        1.61574
              H 7  -- H 12                  -0.09        1.61574
              H 6  -- H 13                  -0.09        1.61574
              H 1  -- H 16                  -0.09        1.61574
              H 22 -- H 23                  -0.09        1.61574
              H 7  -- H 8                   -0.09        1.61574
              H 13 -- H 14                  -0.09        1.61574
              H 2  -- H 3                   -0.09        1.61574
              H 19 -- H 20                  -0.09        1.61574
              H 10 -- H 11                  -0.09        1.61574
              H 16 -- H 17                  -0.09        1.61574
              H 4  -- H 5                   -0.09        1.61574
              H 14 -- H 18                  -0.10        2.04188
              H 12 -- H 20                  -0.10        2.04188
              H 2  -- H 6                   -0.10        2.04188
              H 15 -- H 17                  -0.10        2.04188
              H 11 -- H 21                  -0.10        2.04188
              H 1  -- H 5                   -0.10        2.04188
              H 9  -- H 23                  -0.10        2.04188
              H 8  -- H 24                  -0.10        2.04188
              H 4  -- H 18                  -0.10        2.04188
              H 3  -- H 15                  -0.10        2.04188
              H 12 -- H 22                  -0.10        2.04188
              H 10 -- H 24                  -0.10        2.04188
              H 9  -- H 19                  -0.10        2.04188
              H 7  -- H 21                  -0.10        2.04188
              H 6  -- H 16                  -0.10        2.04188
              H 1  -- H 13                  -0.10        2.04188
              H 7  -- H 23                  -0.10        2.04188
              H 8  -- H 22                  -0.10        2.04188
              H 13 -- H 17                  -0.10        2.04188
              H 11 -- H 19                  -0.10        2.04188
              H 14 -- H 16                  -0.10        2.04188
              H 10 -- H 20                  -0.10        2.04188
              H 3  -- H 5                   -0.10        2.04188
              H 2  -- H 4                   -0.10        2.04188
              H 14 -- H 19                  -0.29        2.05285
              H 13 -- H 20                  -0.29        2.05285
              H 10 -- H 17                  -0.29        2.05285
              H 5  -- H 22                  -0.29        2.05285
              H 3  -- H 8                   -0.29        2.05285
              H 2  -- H 7                   -0.29        2.05285
              H 11 -- H 16                  -0.29        2.05285
              H 4  -- H 23                  -0.29        2.05285
              H 9  -- H 18                  -0.29        2.05285
              H 6  -- H 21                  -0.29        2.05285
              H 15 -- H 24                  -0.29        2.05285
              H 1  -- H 12                  -0.29        2.05285
              H 1  -- H 22                  -0.13        2.05286
              H 6  -- H 7                   -0.13        2.05286
              H 3  -- H 24                  -0.13        2.05286
              H 4  -- H 9                   -0.13        2.05286
              H 18 -- H 19                  -0.13        2.05286
              H 10 -- H 15                  -0.13        2.05286
              H 12 -- H 13                  -0.13        2.05286
              H 16 -- H 21                  -0.13        2.05286
              H 9  -- H 14                  -0.13        2.05286
              H 17 -- H 24                  -0.13        2.05286
              H 6  -- H 11                  -0.13        2.05286
              H 5  -- H 12                  -0.13        2.05286
              H 2  -- H 21                  -0.13        2.05286
              H 1  -- H 20                  -0.13        2.05286
              H 18 -- H 23                  -0.13        2.05286
              H 8  -- H 15                  -0.13        2.05286
              H 5  -- H 8                   -0.13        2.05286
              H 2  -- H 23                  -0.13        2.05286
              H 17 -- H 20                  -0.13        2.05286
              H 11 -- H 14                  -0.13        2.05286
              H 16 -- H 19                  -0.13        2.05286
              H 10 -- H 13                  -0.13        2.05286
              H 4  -- H 7                   -0.13        2.05286
              H 3  -- H 22                  -0.13        2.05286
              H 4  -- H 24                  -0.11        2.16982
              H 6  -- H 22                  -0.11        2.16982
              H 3  -- H 9                   -0.11        2.16982
              H 1  -- H 7                   -0.11        2.16982
              H 12 -- H 16                  -0.11        2.16982
              H 15 -- H 19                  -0.11        2.16982
              H 13 -- H 21                  -0.11        2.16982
              H 10 -- H 18                  -0.11        2.16982
              H 9  -- H 17                  -0.11        2.16982
              H 14 -- H 24                  -0.11        2.16982
              H 6  -- H 20                  -0.11        2.16982
              H 2  -- H 12                  -0.11        2.16982
              H 5  -- H 21                  -0.11        2.16982
              H 1  -- H 11                  -0.11        2.16982
              H 15 -- H 23                  -0.11        2.16982
              H 8  -- H 18                  -0.11        2.16982
              H 5  -- H 23                  -0.11        2.16982
              H 2  -- H 8                   -0.11        2.16982
              H 14 -- H 20                  -0.11        2.16982
              H 11 -- H 17                  -0.11        2.16982
              H 10 -- H 16                  -0.11        2.16982
              H 13 -- H 19                  -0.11        2.16982
              H 4  -- H 22                  -0.11        2.16982
              H 3  -- H 7                   -0.11        2.16982
======================================================================


Writing analysis data to Cmca-12.castep_bin

Writing model to Cmca-12.check
 
 A BibTeX formatted list of references used in this run has been written to 
 Cmca-12.bib
 
Initialisation time =      2.80 s
Calculation time    =  38626.92 s
Finalisation time   =      2.81 s
Total time          =  38632.53 s
Peak Memory Use     = 1124152 kB
  
Overall parallel efficiency rating: Poor (40%)                                  
  
Data was distributed by:-
G-vector (8-way); efficiency rating: Poor (41%)                                 
